<?xml version="1.0" encoding="UTF-8"?>

<!-- generated on Sat Nov  2 14:41:41 2013 by SUMO sumo Version 0.17.1
<?xml version="1.0" encoding="UTF-8"?>

<configuration xmlns:xsi="http://www.w3.org/2001/XMLSchema-instance" xsi:noNamespaceSchemaLocation="http://sumo.sf.net/xsd/sumoConfiguration.xsd">

    <input>
        <net-file value="road_map/test.net.xml"/>
        <route-files value="road_map/test.rou.xml"/>
        <additional-files value="road_map/e1.add.xml"/>
    </input>

    <output>
        <tripinfo-output value="road_map/tripinfo.xml"/>
    </output>

    <time>
        <begin value="0"/>
    </time>

    <report>
        <verbose value="true"/>
        <no-step-log value="true"/>
    </report>

</configuration>
-->

<tripinfos>
    <tripinfo id="52" depart="46.00" departLane="28_0" departPos="7.77" departSpeed="0.00" departDelay="-0.41" arrival="103.00" arrivalLane="28_0" arrivalPos="195.25" arrivalSpeed="3.82" duration="57.00" routeLength="187.48" waitSteps="0" rerouteNo="0" devices="tripinfo_52" vType="7" vaporized=""/>
    <tripinfo id="53" depart="60.00" departLane="47_0" departPos="9.11" departSpeed="0.00" departDelay="-0.13" arrival="112.00" arrivalLane="47_0" arrivalPos="195.25" arrivalSpeed="3.69" duration="52.00" routeLength="186.14" waitSteps="0" rerouteNo="0" devices="tripinfo_53" vType="4" vaporized=""/>
    <tripinfo id="60" depart="66.00" departLane="47_0" departPos="7.77" departSpeed="0.00" departDelay="5.17" arrival="120.00" arrivalLane="47_0" arrivalPos="195.25" arrivalSpeed="4.00" duration="54.00" routeLength="187.48" waitSteps="0" rerouteNo="0" devices="tripinfo_60" vType="7" vaporized=""/>
    <tripinfo id="48" depart="13.00" departLane="31_0" departPos="5.21" departSpeed="0.00" departDelay="-0.58" arrival="172.00" arrivalLane="31_0" arrivalPos="195.25" arrivalSpeed="1.23" duration="159.00" routeLength="190.04" waitSteps="0" rerouteNo="0" devices="tripinfo_48" vType="9" vaporized=""/>
    <tripinfo id="10" depart="90.00" departLane="1_0" departPos="5.09" departSpeed="0.00" departDelay="-0.86" arrival="224.00" arrivalLane="1_0" arrivalPos="195.25" arrivalSpeed="1.92" duration="134.00" routeLength="190.16" waitSteps="0" rerouteNo="0" devices="tripinfo_10" vType="6" vaporized=""/>
    <tripinfo id="44" depart="99.00" departLane="1_0" departPos="5.09" departSpeed="0.00" departDelay="0.53" arrival="235.00" arrivalLane="1_0" arrivalPos="195.25" arrivalSpeed="1.45" duration="136.00" routeLength="190.16" waitSteps="1" rerouteNo="0" devices="tripinfo_44" vType="6" vaporized=""/>
    <tripinfo id="65" depart="197.00" departLane="31_0" departPos="9.11" departSpeed="0.00" departDelay="-0.02" arrival="249.00" arrivalLane="31_0" arrivalPos="195.25" arrivalSpeed="3.69" duration="52.00" routeLength="186.14" waitSteps="0" rerouteNo="0" devices="tripinfo_65" vType="4" vaporized=""/>
    <tripinfo id="30" depart="46.00" departLane="8_0" departPos="9.42" departSpeed="0.00" departDelay="-0.06" arrival="256.00" arrivalLane="8_0" arrivalPos="195.25" arrivalSpeed="0.52" duration="210.00" routeLength="185.83" waitSteps="0" rerouteNo="0" devices="tripinfo_30" vType="2" vaporized=""/>
    <tripinfo id="55" depart="121.00" departLane="48_0" departPos="7.77" departSpeed="0.00" departDelay="-0.62" arrival="262.00" arrivalLane="11_0" arrivalPos="195.25" arrivalSpeed="3.78" duration="141.00" routeLength="377.98" waitSteps="22" rerouteNo="0" devices="tripinfo_55" vType="7" vaporized=""/>
    <tripinfo id="80" depart="62.00" departLane="8_0" departPos="3.83" departSpeed="0.00" departDelay="-0.89" arrival="265.00" arrivalLane="8_0" arrivalPos="195.25" arrivalSpeed="3.01" duration="203.00" routeLength="191.42" waitSteps="0" rerouteNo="0" devices="tripinfo_80" vType="5" vaporized=""/>
    <tripinfo id="41" depart="164.00" departLane="72_0" departPos="5.09" departSpeed="0.00" departDelay="-0.72" arrival="298.00" arrivalLane="72_0" arrivalPos="195.25" arrivalSpeed="1.84" duration="134.00" routeLength="190.16" waitSteps="0" rerouteNo="0" devices="tripinfo_41" vType="6" vaporized=""/>
    <tripinfo id="24" depart="150.00" departLane="21_0" departPos="5.21" departSpeed="0.00" departDelay="-0.68" arrival="307.00" arrivalLane="21_0" arrivalPos="195.25" arrivalSpeed="1.05" duration="157.00" routeLength="190.04" waitSteps="0" rerouteNo="0" devices="tripinfo_24" vType="9" vaporized=""/>
    <tripinfo id="86" depart="65.00" departLane="65_0" departPos="6.71" departSpeed="0.00" departDelay="-0.83" arrival="315.00" arrivalLane="21_0" arrivalPos="195.25" arrivalSpeed="1.61" duration="250.00" routeLength="379.04" waitSteps="1" rerouteNo="0" devices="tripinfo_86" vType="1" vaporized=""/>
    <tripinfo id="21" depart="289.00" departLane="72_0" departPos="7.77" departSpeed="0.00" departDelay="-0.95" arrival="345.00" arrivalLane="72_0" arrivalPos="195.25" arrivalSpeed="4.01" duration="56.00" routeLength="187.48" waitSteps="0" rerouteNo="0" devices="tripinfo_21" vType="7" vaporized=""/>
    <tripinfo id="15" depart="238.00" departLane="41_0" departPos="6.71" departSpeed="0.00" departDelay="-0.45" arrival="349.00" arrivalLane="41_0" arrivalPos="195.25" arrivalSpeed="2.06" duration="111.00" routeLength="188.54" waitSteps="0" rerouteNo="0" devices="tripinfo_15" vType="1" vaporized=""/>
    <tripinfo id="78" depart="92.00" departLane="9_0" departPos="7.77" departSpeed="0.00" departDelay="-0.12" arrival="384.00" arrivalLane="45_0" arrivalPos="195.25" arrivalSpeed="4.10" duration="292.00" routeLength="573.23" waitSteps="108" rerouteNo="0" devices="tripinfo_78" vType="7" vaporized=""/>
    <tripinfo id="98" depart="203.00" departLane="46_0" departPos="7.77" departSpeed="0.00" departDelay="-0.40" arrival="392.00" arrivalLane="45_0" arrivalPos="195.25" arrivalSpeed="3.80" duration="189.00" routeLength="573.23" waitSteps="16" rerouteNo="0" devices="tripinfo_98" vType="7" vaporized=""/>
    <tripinfo id="75" depart="241.00" departLane="1_0" departPos="5.47" departSpeed="0.00" departDelay="-0.79" arrival="395.00" arrivalLane="1_0" arrivalPos="195.25" arrivalSpeed="1.37" duration="154.00" routeLength="189.78" waitSteps="0" rerouteNo="0" devices="tripinfo_75" vType="3" vaporized=""/>
    <tripinfo id="4" depart="102.00" departLane="55_0" departPos="7.77" departSpeed="0.00" departDelay="-0.62" arrival="398.00" arrivalLane="45_0" arrivalPos="195.25" arrivalSpeed="4.02" duration="296.00" routeLength="568.48" waitSteps="99" rerouteNo="0" devices="tripinfo_4" vType="7" vaporized=""/>
    <tripinfo id="77" depart="184.00" departLane="8_0" departPos="9.42" departSpeed="0.00" departDelay="-0.21" arrival="401.00" arrivalLane="8_0" arrivalPos="195.25" arrivalSpeed="1.24" duration="217.00" routeLength="185.83" waitSteps="0" rerouteNo="0" devices="tripinfo_77" vType="2" vaporized=""/>
    <tripinfo id="71" depart="145.00" departLane="16_0" departPos="6.71" departSpeed="0.00" departDelay="73.09" arrival="406.00" arrivalLane="18_0" arrivalPos="195.25" arrivalSpeed="1.92" duration="261.00" routeLength="379.04" waitSteps="30" rerouteNo="0" devices="tripinfo_71" vType="1" vaporized=""/>
    <tripinfo id="27" depart="282.00" departLane="43_0" departPos="5.47" departSpeed="0.00" departDelay="-0.56" arrival="434.00" arrivalLane="43_0" arrivalPos="195.25" arrivalSpeed="1.18" duration="152.00" routeLength="189.78" waitSteps="0" rerouteNo="0" devices="tripinfo_27" vType="3" vaporized=""/>
    <tripinfo id="73" depart="14.00" departLane="24_0" departPos="7.77" departSpeed="0.00" departDelay="-0.19" arrival="435.00" arrivalLane="28_0" arrivalPos="195.25" arrivalSpeed="3.99" duration="421.00" routeLength="568.48" waitSteps="20" rerouteNo="0" devices="tripinfo_73" vType="7" vaporized=""/>
    <tripinfo id="23" depart="235.00" departLane="57_0" departPos="7.77" departSpeed="0.00" departDelay="-0.94" arrival="464.00" arrivalLane="11_0" arrivalPos="195.25" arrivalSpeed="3.96" duration="229.00" routeLength="377.98" waitSteps="110" rerouteNo="0" devices="tripinfo_23" vType="7" vaporized=""/>
    <tripinfo id="43" depart="63.00" departLane="50_0" departPos="3.83" departSpeed="0.00" departDelay="-0.66" arrival="473.00" arrivalLane="1_0" arrivalPos="195.25" arrivalSpeed="3.21" duration="410.00" routeLength="762.92" waitSteps="85" rerouteNo="0" devices="tripinfo_43" vType="5" vaporized=""/>
    <tripinfo id="95" depart="40.00" departLane="73_0" departPos="9.42" departSpeed="0.00" departDelay="-0.66" arrival="563.00" arrivalLane="31_0" arrivalPos="195.25" arrivalSpeed="0.90" duration="523.00" routeLength="381.08" waitSteps="75" rerouteNo="0" devices="tripinfo_95" vType="2" vaporized=""/>
    <tripinfo id="58" depart="145.00" departLane="73_0" departPos="5.21" departSpeed="0.00" departDelay="-0.22" arrival="578.00" arrivalLane="31_0" arrivalPos="195.25" arrivalSpeed="1.22" duration="433.00" routeLength="385.29" waitSteps="35" rerouteNo="0" devices="tripinfo_58" vType="9" vaporized=""/>
    <tripinfo id="9" depart="233.00" departLane="73_0" departPos="6.71" departSpeed="0.00" departDelay="-0.05" arrival="585.00" arrivalLane="31_0" arrivalPos="195.25" arrivalSpeed="1.62" duration="352.00" routeLength="383.79" waitSteps="0" rerouteNo="0" devices="tripinfo_9" vType="1" vaporized=""/>
    <tripinfo id="42" depart="280.00" departLane="57_0" departPos="5.47" departSpeed="0.00" departDelay="-0.42" arrival="595.00" arrivalLane="11_0" arrivalPos="195.25" arrivalSpeed="1.37" duration="315.00" routeLength="380.28" waitSteps="0" rerouteNo="0" devices="tripinfo_42" vType="3" vaporized=""/>
    <tripinfo id="3" depart="322.00" departLane="13_0" departPos="9.11" departSpeed="0.00" departDelay="-0.02" arrival="599.00" arrivalLane="11_0" arrivalPos="195.25" arrivalSpeed="3.71" duration="277.00" routeLength="376.64" waitSteps="119" rerouteNo="0" devices="tripinfo_3" vType="4" vaporized=""/>
    <tripinfo id="5" depart="215.00" departLane="13_0" departPos="9.11" departSpeed="0.00" departDelay="8.99" arrival="603.00" arrivalLane="11_0" arrivalPos="195.25" arrivalSpeed="3.68" duration="388.00" routeLength="376.64" waitSteps="149" rerouteNo="0" devices="tripinfo_5" vType="4" vaporized=""/>
    <tripinfo id="66" depart="250.00" departLane="13_0" departPos="3.83" departSpeed="0.00" departDelay="-0.27" arrival="618.00" arrivalLane="11_0" arrivalPos="195.25" arrivalSpeed="3.19" duration="368.00" routeLength="381.92" waitSteps="127" rerouteNo="0" devices="tripinfo_66" vType="5" vaporized=""/>
    <tripinfo id="99" depart="145.00" departLane="53_0" departPos="5.21" departSpeed="0.00" departDelay="23.21" arrival="636.00" arrivalLane="43_0" arrivalPos="195.25" arrivalSpeed="1.30" duration="491.00" routeLength="571.04" waitSteps="4" rerouteNo="0" devices="tripinfo_99" vType="9" vaporized=""/>
    <tripinfo id="91" depart="212.00" departLane="33_0" departPos="9.42" departSpeed="0.00" departDelay="-0.67" arrival="645.00" arrivalLane="31_0" arrivalPos="195.25" arrivalSpeed="1.04" duration="433.00" routeLength="376.33" waitSteps="0" rerouteNo="0" devices="tripinfo_91" vType="2" vaporized=""/>
    <tripinfo id="31" depart="274.00" departLane="64_0" departPos="5.47" departSpeed="0.00" departDelay="-0.65" arrival="655.00" arrivalLane="31_0" arrivalPos="195.25" arrivalSpeed="1.34" duration="381.00" routeLength="380.28" waitSteps="61" rerouteNo="0" devices="tripinfo_31" vType="3" vaporized=""/>
    <tripinfo id="12" depart="135.00" departLane="34_0" departPos="5.09" departSpeed="0.00" departDelay="-0.53" arrival="669.00" arrivalLane="38_0" arrivalPos="195.25" arrivalSpeed="2.01" duration="534.00" routeLength="571.16" waitSteps="100" rerouteNo="0" devices="tripinfo_12" vType="6" vaporized=""/>
    <tripinfo id="37" depart="320.00" departLane="6_0" departPos="5.21" departSpeed="0.00" departDelay="-0.19" arrival="674.00" arrivalLane="8_0" arrivalPos="195.25" arrivalSpeed="1.35" duration="354.00" routeLength="380.54" waitSteps="27" rerouteNo="0" devices="tripinfo_37" vType="9" vaporized=""/>
    <tripinfo id="96" depart="190.00" departLane="4_0" departPos="9.11" departSpeed="0.00" departDelay="95.82" arrival="678.00" arrivalLane="8_0" arrivalPos="195.25" arrivalSpeed="3.69" duration="488.00" routeLength="567.14" waitSteps="108" rerouteNo="0" devices="tripinfo_96" vType="4" vaporized=""/>
    <tripinfo id="40" depart="154.00" departLane="16_0" departPos="9.42" departSpeed="0.00" departDelay="6.69" arrival="709.00" arrivalLane="18_0" arrivalPos="195.25" arrivalSpeed="1.36" duration="555.00" routeLength="376.33" waitSteps="115" rerouteNo="0" devices="tripinfo_40" vType="2" vaporized=""/>
    <tripinfo id="26" depart="261.00" departLane="16_0" departPos="5.09" departSpeed="0.00" departDelay="-0.56" arrival="721.00" arrivalLane="18_0" arrivalPos="195.25" arrivalSpeed="1.81" duration="460.00" routeLength="380.66" waitSteps="91" rerouteNo="0" devices="tripinfo_26" vType="6" vaporized=""/>
    <tripinfo id="83" depart="306.00" departLane="4_0" departPos="7.77" departSpeed="0.00" departDelay="-0.72" arrival="726.00" arrivalLane="8_0" arrivalPos="195.25" arrivalSpeed="4.07" duration="420.00" routeLength="568.48" waitSteps="238" rerouteNo="0" devices="tripinfo_83" vType="7" vaporized=""/>
    <tripinfo id="59" depart="47.00" departLane="58_0" departPos="5.47" departSpeed="0.00" departDelay="-0.23" arrival="773.00" arrivalLane="11_0" arrivalPos="195.25" arrivalSpeed="1.29" duration="726.00" routeLength="761.28" waitSteps="90" rerouteNo="0" devices="tripinfo_59" vType="3" vaporized=""/>
    <tripinfo id="87" depart="97.00" departLane="77_0" departPos="9.11" departSpeed="0.00" departDelay="-0.86" arrival="777.00" arrivalLane="11_0" arrivalPos="195.25" arrivalSpeed="3.71" duration="680.00" routeLength="1143.39" waitSteps="91" rerouteNo="0" devices="tripinfo_87" vType="4" vaporized=""/>
    <tripinfo id="17" depart="38.00" departLane="24_0" departPos="5.09" departSpeed="0.00" departDelay="-0.92" arrival="806.00" arrivalLane="28_0" arrivalPos="195.25" arrivalSpeed="1.26" duration="768.00" routeLength="571.16" waitSteps="91" rerouteNo="0" devices="tripinfo_17" vType="6" vaporized=""/>
    <tripinfo id="84" depart="193.00" departLane="14_0" departPos="5.09" departSpeed="0.00" departDelay="64.29" arrival="812.00" arrivalLane="18_0" arrivalPos="195.25" arrivalSpeed="1.06" duration="619.00" routeLength="571.16" waitSteps="171" rerouteNo="0" devices="tripinfo_84" vType="6" vaporized=""/>
    <tripinfo id="45" depart="275.00" departLane="14_0" departPos="7.77" departSpeed="0.00" departDelay="-0.21" arrival="820.00" arrivalLane="18_0" arrivalPos="195.25" arrivalSpeed="3.27" duration="545.00" routeLength="568.48" waitSteps="160" rerouteNo="0" devices="tripinfo_45" vType="7" vaporized=""/>
    <tripinfo id="70" depart="41.00" departLane="10_0" departPos="7.77" departSpeed="0.00" departDelay="-0.04" arrival="826.00" arrivalLane="18_0" arrivalPos="195.25" arrivalSpeed="4.01" duration="785.00" routeLength="954.23" waitSteps="271" rerouteNo="0" devices="tripinfo_70" vType="7" vaporized=""/>
    <tripinfo id="82" depart="34.00" departLane="59_0" departPos="5.47" departSpeed="0.00" departDelay="-0.20" arrival="828.00" arrivalLane="1_0" arrivalPos="195.25" arrivalSpeed="1.36" duration="794.00" routeLength="761.28" waitSteps="154" rerouteNo="0" devices="tripinfo_82" vType="3" vaporized=""/>
    <tripinfo id="20" depart="53.00" departLane="24_0" departPos="5.21" departSpeed="0.00" departDelay="-0.97" arrival="853.00" arrivalLane="28_0" arrivalPos="195.25" arrivalSpeed="1.05" duration="800.00" routeLength="571.04" waitSteps="72" rerouteNo="0" devices="tripinfo_20" vType="9" vaporized=""/>
    <tripinfo id="51" depart="190.00" departLane="50_0" departPos="7.77" departSpeed="0.00" departDelay="100.42" arrival="866.00" arrivalLane="1_0" arrivalPos="195.25" arrivalSpeed="4.09" duration="676.00" routeLength="758.98" waitSteps="339" rerouteNo="0" devices="tripinfo_51" vType="7" vaporized=""/>
    <tripinfo id="85" depart="316.00" departLane="50_0" departPos="9.11" departSpeed="0.00" departDelay="-0.25" arrival="874.00" arrivalLane="1_0" arrivalPos="195.25" arrivalSpeed="3.70" duration="558.00" routeLength="757.64" waitSteps="307" rerouteNo="0" devices="tripinfo_85" vType="4" vaporized=""/>
    <tripinfo id="38" depart="137.00" departLane="69_0" departPos="3.83" departSpeed="0.00" departDelay="-0.40" arrival="912.00" arrivalLane="1_0" arrivalPos="195.25" arrivalSpeed="2.58" duration="775.00" routeLength="1143.92" waitSteps="209" rerouteNo="0" devices="tripinfo_38" vType="5" vaporized=""/>
    <tripinfo id="36" depart="210.00" departLane="69_0" departPos="3.83" departSpeed="0.00" departDelay="-0.09" arrival="933.00" arrivalLane="1_0" arrivalPos="195.25" arrivalSpeed="3.05" duration="723.00" routeLength="1143.92" waitSteps="171" rerouteNo="0" devices="tripinfo_36" vType="5" vaporized=""/>
    <tripinfo id="35" depart="306.00" departLane="24_0" departPos="5.47" departSpeed="0.00" departDelay="-0.44" arrival="1114.00" arrivalLane="28_0" arrivalPos="195.25" arrivalSpeed="1.13" duration="808.00" routeLength="570.78" waitSteps="183" rerouteNo="0" devices="tripinfo_35" vType="3" vaporized=""/>
    <tripinfo id="13" depart="168.00" departLane="20_0" departPos="9.11" departSpeed="0.00" departDelay="-0.01" arrival="1154.00" arrivalLane="28_0" arrivalPos="195.25" arrivalSpeed="3.69" duration="986.00" routeLength="952.89" waitSteps="499" rerouteNo="0" devices="tripinfo_13" vType="4" vaporized=""/>
    <tripinfo id="89" depart="40.00" departLane="63_0" departPos="5.09" departSpeed="0.00" departDelay="-0.70" arrival="1349.00" arrivalLane="43_0" arrivalPos="195.25" arrivalSpeed="1.31" duration="1309.00" routeLength="952.16" waitSteps="576" rerouteNo="0" devices="tripinfo_89" vType="6" vaporized=""/>
    <tripinfo id="49" depart="5.00" departLane="30_0" departPos="9.42" departSpeed="0.00" departDelay="-0.07" arrival="1360.00" arrivalLane="38_0" arrivalPos="195.25" arrivalSpeed="1.20" duration="1355.00" routeLength="952.58" waitSteps="220" rerouteNo="0" devices="tripinfo_49" vType="2" vaporized=""/>
    <tripinfo id="1" depart="213.00" departLane="30_0" departPos="6.71" departSpeed="0.00" departDelay="-0.85" arrival="1371.00" arrivalLane="38_0" arrivalPos="195.25" arrivalSpeed="1.82" duration="1158.00" routeLength="955.29" waitSteps="246" rerouteNo="0" devices="tripinfo_1" vType="1" vaporized=""/>
    <tripinfo id="34" depart="119.00" departLane="63_0" departPos="5.47" departSpeed="0.00" departDelay="-0.27" arrival="1379.00" arrivalLane="43_0" arrivalPos="195.25" arrivalSpeed="1.17" duration="1260.00" routeLength="951.78" waitSteps="458" rerouteNo="0" devices="tripinfo_34" vType="3" vaporized=""/>
    <tripinfo id="25" depart="1269.00" departLane="3_0" departPos="9.11" departSpeed="0.00" departDelay="1014.10" arrival="1585.00" arrivalLane="1_0" arrivalPos="195.25" arrivalSpeed="3.72" duration="316.00" routeLength="376.64" waitSteps="201" rerouteNo="0" devices="tripinfo_25" vType="4" vaporized=""/>
    <tripinfo id="62" depart="195.00" departLane="21_0" departPos="2.32" departSpeed="0.00" departDelay="2.50" arrival="1878.00" arrivalLane="21_0" arrivalPos="195.25" arrivalSpeed="0.14" duration="1683.00" routeLength="192.93" waitSteps="533" rerouteNo="0" devices="tripinfo_62" vType="8" vaporized=""/>
    <tripinfo id="19" depart="293.00" departLane="21_0" departPos="2.32" departSpeed="0.00" departDelay="37.01" arrival="1984.00" arrivalLane="21_0" arrivalPos="195.25" arrivalSpeed="0.13" duration="1691.00" routeLength="192.93" waitSteps="544" rerouteNo="0" devices="tripinfo_19" vType="8" vaporized=""/>
    <tripinfo id="81" depart="306.00" departLane="23_0" departPos="6.71" departSpeed="0.00" departDelay="17.43" arrival="1990.00" arrivalLane="21_0" arrivalPos="195.25" arrivalSpeed="1.76" duration="1684.00" routeLength="379.04" waitSteps="724" rerouteNo="0" devices="tripinfo_81" vType="1" vaporized=""/>
    <tripinfo id="97" depart="306.00" departLane="56_0" departPos="5.47" departSpeed="0.00" departDelay="61.95" arrival="1999.00" arrivalLane="21_0" arrivalPos="195.25" arrivalSpeed="1.29" duration="1693.00" routeLength="380.28" waitSteps="649" rerouteNo="0" devices="tripinfo_97" vType="3" vaporized=""/>
    <tripinfo id="69" depart="37.00" departLane="66_0" departPos="9.42" departSpeed="0.00" departDelay="-0.77" arrival="2012.00" arrivalLane="21_0" arrivalPos="195.25" arrivalSpeed="1.12" duration="1975.00" routeLength="757.33" waitSteps="738" rerouteNo="0" devices="tripinfo_69" vType="2" vaporized=""/>
    <tripinfo id="50" depart="68.00" departLane="66_0" departPos="5.47" departSpeed="0.00" departDelay="-0.61" arrival="2022.00" arrivalLane="21_0" arrivalPos="195.25" arrivalSpeed="1.21" duration="1954.00" routeLength="761.28" waitSteps="697" rerouteNo="0" devices="tripinfo_50" vType="3" vaporized=""/>
    <tripinfo id="14" depart="142.00" departLane="66_0" departPos="7.77" departSpeed="0.00" departDelay="-0.97" arrival="2031.00" arrivalLane="21_0" arrivalPos="195.25" arrivalSpeed="3.06" duration="1889.00" routeLength="758.98" waitSteps="981" rerouteNo="0" devices="tripinfo_14" vType="7" vaporized=""/>
    <tripinfo id="76" depart="240.00" departLane="66_0" departPos="5.21" departSpeed="0.00" departDelay="-0.85" arrival="2052.00" arrivalLane="21_0" arrivalPos="195.25" arrivalSpeed="1.36" duration="1812.00" routeLength="761.54" waitSteps="720" rerouteNo="0" devices="tripinfo_76" vType="9" vaporized=""/>
    <tripinfo id="93" depart="10.00" departLane="29_0" departPos="9.11" departSpeed="0.00" departDelay="-0.37" arrival="2331.00" arrivalLane="41_0" arrivalPos="195.25" arrivalSpeed="3.72" duration="2321.00" routeLength="1333.89" waitSteps="1352" rerouteNo="0" devices="tripinfo_93" vType="4" vaporized=""/>
    <tripinfo id="7" depart="147.00" departLane="22_0" departPos="7.77" departSpeed="0.00" departDelay="-0.42" arrival="2614.00" arrivalLane="28_0" arrivalPos="195.25" arrivalSpeed="3.83" duration="2467.00" routeLength="758.98" waitSteps="1395" rerouteNo="0" devices="tripinfo_7" vType="7" vaporized=""/>
    <tripinfo id="68" depart="218.00" departLane="22_0" departPos="5.09" departSpeed="0.00" departDelay="-0.03" arrival="3240.00" arrivalLane="28_0" arrivalPos="195.25" arrivalSpeed="2.08" duration="3022.00" routeLength="761.66" waitSteps="1629" rerouteNo="0" devices="tripinfo_68" vType="6" vaporized=""/>
    <tripinfo id="90" depart="341.00" departLane="5_0" departPos="7.77" departSpeed="0.00" departDelay="1.71" arrival="3611.00" arrivalLane="41_0" arrivalPos="195.25" arrivalSpeed="3.94" duration="3270.00" routeLength="568.48" waitSteps="2872" rerouteNo="0" devices="tripinfo_90" vType="7" vaporized=""/>
    <tripinfo id="2" depart="215.00" departLane="69_0" departPos="9.42" departSpeed="0.00" departDelay="3.72" arrival="3884.00" arrivalLane="1_0" arrivalPos="195.25" arrivalSpeed="0.56" duration="3669.00" routeLength="1138.33" waitSteps="1679" rerouteNo="0" devices="tripinfo_2" vType="2" vaporized=""/>
    <tripinfo id="79" depart="106.00" departLane="79_0" departPos="5.47" departSpeed="0.00" departDelay="-0.57" arrival="3894.00" arrivalLane="1_0" arrivalPos="195.25" arrivalSpeed="1.14" duration="3788.00" routeLength="1528.03" waitSteps="1592" rerouteNo="0" devices="tripinfo_79" vType="3" vaporized=""/>
    <tripinfo id="22" depart="237.00" departLane="48_0" departPos="2.32" departSpeed="0.00" departDelay="-0.79" arrival="3971.00" arrivalLane="11_0" arrivalPos="195.25" arrivalSpeed="0.13" duration="3734.00" routeLength="383.43" waitSteps="1405" rerouteNo="0" devices="tripinfo_22" vType="8" vaporized=""/>
    <tripinfo id="57" depart="67.00" departLane="29_0" departPos="5.21" departSpeed="0.00" departDelay="-0.83" arrival="4323.00" arrivalLane="41_0" arrivalPos="195.25" arrivalSpeed="1.14" duration="4256.00" routeLength="1337.79" waitSteps="3041" rerouteNo="0" devices="tripinfo_57" vType="9" vaporized=""/>
    <tripinfo id="64" depart="248.00" departLane="2_0" departPos="5.09" departSpeed="0.00" departDelay="-0.31" arrival="4464.00" arrivalLane="8_0" arrivalPos="195.25" arrivalSpeed="1.76" duration="4216.00" routeLength="761.66" waitSteps="3496" rerouteNo="0" devices="tripinfo_64" vType="6" vaporized=""/>
    <tripinfo id="0" depart="44.00" departLane="51_0" departPos="3.83" departSpeed="0.00" departDelay="-0.59" arrival="4833.00" arrivalLane="41_0" arrivalPos="195.25" arrivalSpeed="3.01" duration="4789.00" routeLength="572.42" waitSteps="4326" rerouteNo="0" devices="tripinfo_0" vType="5" vaporized=""/>
    <tripinfo id="39" depart="317.00" departLane="5_0" departPos="5.47" departSpeed="0.00" departDelay="9.47" arrival="5124.00" arrivalLane="41_0" arrivalPos="195.25" arrivalSpeed="1.13" duration="4807.00" routeLength="570.78" waitSteps="4298" rerouteNo="0" devices="tripinfo_39" vType="3" vaporized=""/>
    <tripinfo id="47" depart="193.00" departLane="51_0" departPos="5.09" departSpeed="0.00" departDelay="47.78" arrival="5523.00" arrivalLane="41_0" arrivalPos="195.25" arrivalSpeed="1.59" duration="5330.00" routeLength="571.16" waitSteps="4740" rerouteNo="0" devices="tripinfo_47" vType="6" vaporized=""/>
    <tripinfo id="72" depart="72.00" departLane="42_0" departPos="5.47" departSpeed="0.00" departDelay="-0.60" arrival="5730.00" arrivalLane="41_0" arrivalPos="195.25" arrivalSpeed="1.25" duration="5658.00" routeLength="575.53" waitSteps="5199" rerouteNo="0" devices="tripinfo_72" vType="3" vaporized=""/>
    <tripinfo id="54" depart="104.00" departLane="24_0" departPos="2.32" departSpeed="0.00" departDelay="-0.70" arrival="5800.00" arrivalLane="28_0" arrivalPos="195.25" arrivalSpeed="0.09" duration="5696.00" routeLength="573.93" waitSteps="2121" rerouteNo="0" devices="tripinfo_54" vType="8" vaporized=""/>
    <tripinfo id="67" depart="238.00" departLane="24_0" departPos="5.09" departSpeed="0.00" departDelay="-0.20" arrival="5805.00" arrivalLane="28_0" arrivalPos="195.25" arrivalSpeed="1.43" duration="5567.00" routeLength="571.16" waitSteps="2916" rerouteNo="0" devices="tripinfo_67" vType="6" vaporized=""/>
    <tripinfo id="61" depart="13.00" departLane="52_0" departPos="9.11" departSpeed="0.00" departDelay="-0.45" arrival="5841.00" arrivalLane="41_0" arrivalPos="195.25" arrivalSpeed="3.68" duration="5828.00" routeLength="948.14" waitSteps="5393" rerouteNo="0" devices="tripinfo_61" vType="4" vaporized=""/>
    <tripinfo id="46" depart="31.00" departLane="61_0" departPos="3.83" departSpeed="0.00" departDelay="-0.69" arrival="6450.00" arrivalLane="41_0" arrivalPos="195.25" arrivalSpeed="3.02" duration="6419.00" routeLength="953.42" waitSteps="5799" rerouteNo="0" devices="tripinfo_46" vType="5" vaporized=""/>
    <tripinfo id="74" depart="335.00" departLane="17_0" departPos="3.83" departSpeed="0.00" departDelay="-0.92" arrival="7059.00" arrivalLane="41_0" arrivalPos="195.25" arrivalSpeed="3.10" duration="6724.00" routeLength="953.42" waitSteps="6073" rerouteNo="0" devices="tripinfo_74" vType="5" vaporized=""/>
    <tripinfo id="29" depart="315.00" departLane="67_0" departPos="2.32" departSpeed="0.00" departDelay="-0.54" arrival="7695.00" arrivalLane="11_0" arrivalPos="195.25" arrivalSpeed="0.15" duration="7380.00" routeLength="764.43" waitSteps="2592" rerouteNo="0" devices="tripinfo_29" vType="8" vaporized=""/>
    <tripinfo id="33" depart="267.00" departLane="29_0" departPos="6.71" departSpeed="0.00" departDelay="-0.92" arrival="7702.00" arrivalLane="41_0" arrivalPos="195.25" arrivalSpeed="2.07" duration="7435.00" routeLength="1336.29" waitSteps="6183" rerouteNo="0" devices="tripinfo_33" vType="1" vaporized=""/>
    <tripinfo id="94" depart="611.00" departLane="67_0" departPos="7.77" departSpeed="0.00" departDelay="260.56" arrival="7704.00" arrivalLane="11_0" arrivalPos="195.25" arrivalSpeed="2.66" duration="7093.00" routeLength="758.98" waitSteps="3639" rerouteNo="0" devices="tripinfo_94" vType="7" vaporized=""/>
    <tripinfo id="6" depart="233.00" departLane="68_0" departPos="5.21" departSpeed="0.00" departDelay="-0.06" arrival="7720.00" arrivalLane="11_0" arrivalPos="195.25" arrivalSpeed="1.25" duration="7487.00" routeLength="1142.54" waitSteps="3820" rerouteNo="0" devices="tripinfo_6" vType="9" vaporized=""/>
    <tripinfo id="88" depart="298.00" departLane="68_0" departPos="9.11" departSpeed="0.00" departDelay="10.04" arrival="7723.00" arrivalLane="11_0" arrivalPos="195.25" arrivalSpeed="3.70" duration="7425.00" routeLength="1138.64" waitSteps="3737" rerouteNo="0" devices="tripinfo_88" vType="4" vaporized=""/>
    <tripinfo id="8" depart="276.00" departLane="62_0" departPos="6.71" departSpeed="0.00" departDelay="-0.33" arrival="8307.00" arrivalLane="41_0" arrivalPos="195.25" arrivalSpeed="1.74" duration="8031.00" routeLength="1331.54" waitSteps="6723" rerouteNo="0" devices="tripinfo_8" vType="1" vaporized=""/>
    <tripinfo id="11" depart="348.00" departLane="25_0" departPos="2.32" departSpeed="0.00" departDelay="-0.13" arrival="8850.00" arrivalLane="11_0" arrivalPos="195.25" arrivalSpeed="0.13" duration="8502.00" routeLength="764.43" waitSteps="3747" rerouteNo="0" devices="tripinfo_11" vType="8" vaporized=""/>
    <tripinfo id="92" depart="65.00" departLane="54_0" departPos="2.32" departSpeed="0.00" departDelay="-0.25" arrival="9851.00" arrivalLane="43_0" arrivalPos="195.25" arrivalSpeed="0.10" duration="9786.00" routeLength="954.93" waitSteps="3938" rerouteNo="0" devices="tripinfo_92" vType="8" vaporized=""/>
    <tripinfo id="32" depart="163.00" departLane="54_0" departPos="9.42" departSpeed="0.00" departDelay="42.17" arrival="9857.00" arrivalLane="43_0" arrivalPos="195.25" arrivalSpeed="1.36" duration="9694.00" routeLength="947.83" waitSteps="5454" rerouteNo="0" devices="tripinfo_32" vType="2" vaporized=""/>
    <tripinfo id="28" depart="277.00" departLane="54_0" departPos="5.21" departSpeed="0.00" departDelay="94.37" arrival="9872.00" arrivalLane="43_0" arrivalPos="195.25" arrivalSpeed="1.27" duration="9595.00" routeLength="952.04" waitSteps="5220" rerouteNo="0" devices="tripinfo_28" vType="9" vaporized=""/>