<?xml version="1.0" encoding="UTF-8"?>

<!-- generated on Sat Nov  2 10:33:34 2013 by SUMO sumo Version 0.17.1
<?xml version="1.0" encoding="UTF-8"?>

<configuration xmlns:xsi="http://www.w3.org/2001/XMLSchema-instance" xsi:noNamespaceSchemaLocation="http://sumo.sf.net/xsd/sumoConfiguration.xsd">

    <input>
        <net-file value="road_map/test.net.xml"/>
        <route-files value="road_map/test.rou.xml"/>
        <additional-files value="road_map/e1.add.xml"/>
    </input>

    <output>
        <tripinfo-output value="road_map/tripinfo.xml"/>
    </output>

    <time>
        <begin value="0"/>
    </time>

    <report>
        <verbose value="true"/>
        <no-step-log value="true"/>
    </report>

</configuration>
-->

<tripinfos>
    <tripinfo id="898" depart="15.00" departLane="31_0" departPos="4.17" departSpeed="0.00" departDelay="-0.99" arrival="66.00" arrivalLane="31_0" arrivalPos="195.25" arrivalSpeed="4.60" duration="51.00" routeLength="191.08" waitSteps="0" rerouteNo="0" devices="tripinfo_898" vType="8" vaporized=""/>
    <tripinfo id="41" depart="35.00" departLane="74_0" departPos="4.17" departSpeed="0.00" departDelay="-0.43" arrival="87.00" arrivalLane="74_0" arrivalPos="195.25" arrivalSpeed="4.79" duration="52.00" routeLength="191.08" waitSteps="0" rerouteNo="0" devices="tripinfo_41" vType="8" vaporized=""/>
    <tripinfo id="150" depart="86.00" departLane="74_0" departPos="4.17" departSpeed="0.00" departDelay="0.93" arrival="-0.00" arrivalLane="" arrivalPos="-1.00" arrivalSpeed="-1.00" duration="-86.00" routeLength="191.08" waitSteps="0" rerouteNo="0" devices="tripinfo_150" vType="8" vaporized=""/>
    <tripinfo id="461" depart="8.00" departLane="73_0" departPos="1.20" departSpeed="0.00" departDelay="-0.64" arrival="109.00" arrivalLane="31_0" arrivalPos="195.25" arrivalSpeed="4.26" duration="101.00" routeLength="389.30" waitSteps="0" rerouteNo="0" devices="tripinfo_461" vType="2" vaporized=""/>
    <tripinfo id="255" depart="18.00" departLane="56_0" departPos="4.17" departSpeed="0.00" departDelay="-0.92" arrival="109.00" arrivalLane="21_0" arrivalPos="195.25" arrivalSpeed="4.91" duration="91.00" routeLength="381.58" waitSteps="0" rerouteNo="0" devices="tripinfo_255" vType="8" vaporized=""/>
    <tripinfo id="412" depart="24.00" departLane="72_0" departPos="5.66" departSpeed="0.00" departDelay="-0.38" arrival="116.00" arrivalLane="72_0" arrivalPos="195.25" arrivalSpeed="2.08" duration="92.00" routeLength="189.59" waitSteps="0" rerouteNo="0" devices="tripinfo_412" vType="7" vaporized=""/>
    <tripinfo id="623" depart="10.00" departLane="47_0" departPos="2.43" departSpeed="0.00" departDelay="-0.01" arrival="134.00" arrivalLane="47_0" arrivalPos="195.25" arrivalSpeed="1.71" duration="124.00" routeLength="192.82" waitSteps="0" rerouteNo="0" devices="tripinfo_623" vType="6" vaporized=""/>
    <tripinfo id="389" depart="18.00" departLane="8_0" departPos="2.43" departSpeed="0.00" departDelay="-0.34" arrival="142.00" arrivalLane="8_0" arrivalPos="195.25" arrivalSpeed="1.41" duration="124.00" routeLength="192.82" waitSteps="0" rerouteNo="0" devices="tripinfo_389" vType="6" vaporized=""/>
    <tripinfo id="241" depart="22.00" departLane="1_0" departPos="2.43" departSpeed="0.00" departDelay="-0.28" arrival="143.00" arrivalLane="1_0" arrivalPos="195.25" arrivalSpeed="1.36" duration="121.00" routeLength="192.82" waitSteps="0" rerouteNo="0" devices="tripinfo_241" vType="6" vaporized=""/>
    <tripinfo id="924" depart="17.00" departLane="49_0" departPos="1.20" departSpeed="0.00" departDelay="-0.85" arrival="149.00" arrivalLane="1_0" arrivalPos="195.25" arrivalSpeed="3.45" duration="132.00" routeLength="384.55" waitSteps="0" rerouteNo="0" devices="tripinfo_924" vType="2" vaporized=""/>
    <tripinfo id="370" depart="60.00" departLane="72_0" departPos="5.66" departSpeed="0.00" departDelay="2.29" arrival="152.00" arrivalLane="72_0" arrivalPos="195.25" arrivalSpeed="2.05" duration="92.00" routeLength="189.59" waitSteps="0" rerouteNo="0" devices="tripinfo_370" vType="7" vaporized=""/>
    <tripinfo id="169" depart="69.00" departLane="45_0" departPos="6.26" departSpeed="0.00" departDelay="-0.92" arrival="166.00" arrivalLane="45_0" arrivalPos="195.25" arrivalSpeed="2.08" duration="97.00" routeLength="188.99" waitSteps="0" rerouteNo="0" devices="tripinfo_169" vType="4" vaporized=""/>
    <tripinfo id="882" depart="44.00" departLane="38_0" departPos="2.43" departSpeed="0.00" departDelay="-0.06" arrival="167.00" arrivalLane="38_0" arrivalPos="195.25" arrivalSpeed="1.69" duration="123.00" routeLength="192.82" waitSteps="0" rerouteNo="0" devices="tripinfo_882" vType="6" vaporized=""/>
    <tripinfo id="785" depart="105.00" departLane="45_0" departPos="1.64" departSpeed="0.00" departDelay="-0.60" arrival="171.00" arrivalLane="45_0" arrivalPos="195.25" arrivalSpeed="4.63" duration="66.00" routeLength="193.61" waitSteps="0" rerouteNo="0" devices="tripinfo_785" vType="5" vaporized=""/>
    <tripinfo id="301" depart="75.00" departLane="43_0" departPos="6.26" departSpeed="0.00" departDelay="-0.54" arrival="172.00" arrivalLane="43_0" arrivalPos="195.25" arrivalSpeed="2.08" duration="97.00" routeLength="188.99" waitSteps="0" rerouteNo="0" devices="tripinfo_301" vType="4" vaporized=""/>
    <tripinfo id="916" depart="115.00" departLane="45_0" departPos="1.20" departSpeed="0.00" departDelay="-0.56" arrival="176.00" arrivalLane="45_0" arrivalPos="195.25" arrivalSpeed="4.28" duration="61.00" routeLength="194.05" waitSteps="0" rerouteNo="0" devices="tripinfo_916" vType="2" vaporized=""/>
    <tripinfo id="56" depart="134.00" departLane="45_0" departPos="1.64" departSpeed="0.00" departDelay="-0.89" arrival="182.00" arrivalLane="45_0" arrivalPos="195.25" arrivalSpeed="4.39" duration="48.00" routeLength="193.61" waitSteps="0" rerouteNo="0" devices="tripinfo_56" vType="5" vaporized=""/>
    <tripinfo id="26" depart="187.00" departLane="41_0" departPos="2.43" departSpeed="0.00" departDelay="7.51" arrival="-0.00" arrivalLane="" arrivalPos="-1.00" arrivalSpeed="-1.00" duration="-187.00" routeLength="192.82" waitSteps="0" rerouteNo="0" devices="tripinfo_26" vType="6" vaporized=""/>
    <tripinfo id="88" depart="141.00" departLane="45_0" departPos="1.20" departSpeed="0.00" departDelay="-0.68" arrival="193.00" arrivalLane="45_0" arrivalPos="195.25" arrivalSpeed="4.31" duration="52.00" routeLength="194.05" waitSteps="0" rerouteNo="0" devices="tripinfo_88" vType="2" vaporized=""/>
    <tripinfo id="483" depart="196.00" departLane="43_0" departPos="1.64" departSpeed="0.00" departDelay="4.31" arrival="-0.00" arrivalLane="" arrivalPos="-1.00" arrivalSpeed="-1.00" duration="-196.00" routeLength="193.61" waitSteps="0" rerouteNo="0" devices="tripinfo_483" vType="5" vaporized=""/>
    <tripinfo id="72" depart="198.00" departLane="41_0" departPos="6.13" departSpeed="0.00" departDelay="136.14" arrival="-0.00" arrivalLane="" arrivalPos="-1.00" arrivalSpeed="-1.00" duration="-198.00" routeLength="189.12" waitSteps="0" rerouteNo="0" devices="tripinfo_72" vType="1" vaporized=""/>
    <tripinfo id="188" depart="0.00" departLane="65_0" departPos="6.64" departSpeed="0.00" departDelay="-0.57" arrival="205.00" arrivalLane="21_0" arrivalPos="195.25" arrivalSpeed="2.20" duration="205.00" routeLength="379.11" waitSteps="0" rerouteNo="0" devices="tripinfo_188" vType="9" vaporized=""/>
    <tripinfo id="297" depart="108.00" departLane="1_0" departPos="6.64" departSpeed="0.00" departDelay="-0.21" arrival="207.00" arrivalLane="1_0" arrivalPos="195.25" arrivalSpeed="1.89" duration="99.00" routeLength="188.61" waitSteps="1" rerouteNo="0" devices="tripinfo_297" vType="9" vaporized=""/>
    <tripinfo id="456" depart="159.00" departLane="45_0" departPos="1.64" departSpeed="0.00" departDelay="-0.96" arrival="207.00" arrivalLane="45_0" arrivalPos="195.25" arrivalSpeed="4.76" duration="48.00" routeLength="193.61" waitSteps="0" rerouteNo="0" devices="tripinfo_456" vType="5" vaporized=""/>
    <tripinfo id="171" depart="213.00" departLane="41_0" departPos="5.66" departSpeed="0.00" departDelay="37.10" arrival="-0.00" arrivalLane="" arrivalPos="-1.00" arrivalSpeed="-1.00" duration="-213.00" routeLength="189.59" waitSteps="0" rerouteNo="0" devices="tripinfo_171" vType="7" vaporized=""/>
    <tripinfo id="253" depart="119.00" departLane="78_0" departPos="6.26" departSpeed="0.00" departDelay="-0.93" arrival="216.00" arrivalLane="78_0" arrivalPos="195.25" arrivalSpeed="2.11" duration="97.00" routeLength="188.99" waitSteps="0" rerouteNo="0" devices="tripinfo_253" vType="4" vaporized=""/>
    <tripinfo id="183" depart="110.00" departLane="31_0" departPos="2.43" departSpeed="0.00" departDelay="-0.87" arrival="234.00" arrivalLane="31_0" arrivalPos="195.25" arrivalSpeed="1.46" duration="124.00" routeLength="192.82" waitSteps="0" rerouteNo="0" devices="tripinfo_183" vType="6" vaporized=""/>
    <tripinfo id="479" depart="117.00" departLane="31_0" departPos="1.20" departSpeed="0.00" departDelay="2.05" arrival="239.00" arrivalLane="31_0" arrivalPos="195.25" arrivalSpeed="3.39" duration="122.00" routeLength="194.05" waitSteps="0" rerouteNo="0" devices="tripinfo_479" vType="2" vaporized=""/>
    <tripinfo id="811" depart="116.00" departLane="1_0" departPos="2.43" departSpeed="0.00" departDelay="7.01" arrival="240.00" arrivalLane="1_0" arrivalPos="195.25" arrivalSpeed="1.66" duration="124.00" routeLength="192.82" waitSteps="0" rerouteNo="0" devices="tripinfo_811" vType="6" vaporized=""/>
    <tripinfo id="446" depart="25.00" departLane="49_0" departPos="6.26" departSpeed="0.00" departDelay="-0.00" arrival="244.00" arrivalLane="1_0" arrivalPos="195.25" arrivalSpeed="2.09" duration="219.00" routeLength="379.49" waitSteps="0" rerouteNo="0" devices="tripinfo_446" vType="4" vaporized=""/>
    <tripinfo id="324" depart="125.00" departLane="31_0" departPos="6.64" departSpeed="0.00" departDelay="0.74" arrival="244.00" arrivalLane="31_0" arrivalPos="195.25" arrivalSpeed="1.70" duration="119.00" routeLength="188.61" waitSteps="0" rerouteNo="0" devices="tripinfo_324" vType="9" vaporized=""/>
    <tripinfo id="537" depart="36.00" departLane="49_0" departPos="1.20" departSpeed="0.00" departDelay="9.00" arrival="250.00" arrivalLane="1_0" arrivalPos="195.25" arrivalSpeed="3.75" duration="214.00" routeLength="384.55" waitSteps="0" rerouteNo="0" devices="tripinfo_537" vType="2" vaporized=""/>
    <tripinfo id="754" depart="150.00" departLane="31_0" departPos="4.17" departSpeed="0.00" departDelay="-0.23" arrival="251.00" arrivalLane="31_0" arrivalPos="195.25" arrivalSpeed="4.01" duration="101.00" routeLength="191.08" waitSteps="0" rerouteNo="0" devices="tripinfo_754" vType="8" vaporized=""/>
    <tripinfo id="522" depart="139.00" departLane="1_0" departPos="6.64" departSpeed="0.00" departDelay="10.61" arrival="257.00" arrivalLane="1_0" arrivalPos="195.25" arrivalSpeed="2.10" duration="118.00" routeLength="188.61" waitSteps="1" rerouteNo="0" devices="tripinfo_522" vType="9" vaporized=""/>
    <tripinfo id="781" depart="9.00" departLane="33_0" departPos="6.26" departSpeed="0.00" departDelay="-0.96" arrival="258.00" arrivalLane="31_0" arrivalPos="195.25" arrivalSpeed="2.10" duration="249.00" routeLength="379.49" waitSteps="39" rerouteNo="0" devices="tripinfo_781" vType="4" vaporized=""/>
    <tripinfo id="217" depart="43.00" departLane="49_0" departPos="6.26" departSpeed="0.00" departDelay="13.71" arrival="263.00" arrivalLane="1_0" arrivalPos="195.25" arrivalSpeed="2.11" duration="220.00" routeLength="379.49" waitSteps="0" rerouteNo="0" devices="tripinfo_217" vType="4" vaporized=""/>
    <tripinfo id="796" depart="174.00" departLane="1_0" departPos="6.64" departSpeed="0.00" departDelay="-0.58" arrival="272.00" arrivalLane="1_0" arrivalPos="195.25" arrivalSpeed="1.94" duration="98.00" routeLength="188.61" waitSteps="0" rerouteNo="0" devices="tripinfo_796" vType="9" vaporized=""/>
    <tripinfo id="327" depart="184.00" departLane="1_0" departPos="1.20" departSpeed="0.00" departDelay="-0.88" arrival="278.00" arrivalLane="1_0" arrivalPos="195.25" arrivalSpeed="3.96" duration="94.00" routeLength="194.05" waitSteps="0" rerouteNo="0" devices="tripinfo_327" vType="2" vaporized=""/>
    <tripinfo id="260" depart="190.00" departLane="31_0" departPos="5.66" departSpeed="0.00" departDelay="-0.02" arrival="282.00" arrivalLane="31_0" arrivalPos="195.25" arrivalSpeed="2.05" duration="92.00" routeLength="189.59" waitSteps="0" rerouteNo="0" devices="tripinfo_260" vType="7" vaporized=""/>
    <tripinfo id="52" depart="282.00" departLane="41_0" departPos="1.64" departSpeed="0.00" departDelay="-0.95" arrival="-0.00" arrivalLane="" arrivalPos="-1.00" arrivalSpeed="-1.00" duration="-282.00" routeLength="193.61" waitSteps="0" rerouteNo="0" devices="tripinfo_52" vType="5" vaporized=""/>
    <tripinfo id="65" depart="195.00" departLane="31_0" departPos="1.20" departSpeed="0.00" departDelay="2.58" arrival="288.00" arrivalLane="31_0" arrivalPos="195.25" arrivalSpeed="3.64" duration="93.00" routeLength="194.05" waitSteps="0" rerouteNo="0" devices="tripinfo_65" vType="2" vaporized=""/>
    <tripinfo id="200" depart="209.00" departLane="1_0" departPos="5.66" departSpeed="0.00" departDelay="-0.68" arrival="301.00" arrivalLane="1_0" arrivalPos="195.25" arrivalSpeed="2.10" duration="92.00" routeLength="189.59" waitSteps="0" rerouteNo="0" devices="tripinfo_200" vType="7" vaporized=""/>
    <tripinfo id="520" depart="202.00" departLane="45_0" departPos="6.64" departSpeed="0.00" departDelay="-0.95" arrival="303.00" arrivalLane="45_0" arrivalPos="195.25" arrivalSpeed="1.74" duration="101.00" routeLength="188.61" waitSteps="0" rerouteNo="0" devices="tripinfo_520" vType="9" vaporized=""/>
    <tripinfo id="178" depart="277.00" departLane="1_0" departPos="4.17" departSpeed="0.00" departDelay="-0.55" arrival="326.00" arrivalLane="1_0" arrivalPos="195.25" arrivalSpeed="4.65" duration="49.00" routeLength="191.08" waitSteps="0" rerouteNo="0" devices="tripinfo_178" vType="8" vaporized=""/>
    <tripinfo id="576" depart="285.00" departLane="1_0" departPos="6.26" departSpeed="0.00" departDelay="3.09" arrival="382.00" arrivalLane="1_0" arrivalPos="195.25" arrivalSpeed="2.08" duration="97.00" routeLength="188.99" waitSteps="0" rerouteNo="0" devices="tripinfo_576" vType="4" vaporized=""/>
    <tripinfo id="783" depart="108.00" departLane="49_0" departPos="5.66" departSpeed="0.00" departDelay="-0.86" arrival="-0.00" arrivalLane="" arrivalPos="-1.00" arrivalSpeed="-1.00" duration="-108.00" routeLength="380.09" waitSteps="190" rerouteNo="0" devices="tripinfo_783" vType="7" vaporized=""/>
    <tripinfo id="939" depart="431.00" departLane="41_0" departPos="4.17" departSpeed="0.00" departDelay="149.89" arrival="-0.00" arrivalLane="" arrivalPos="-1.00" arrivalSpeed="-1.00" duration="-431.00" routeLength="191.08" waitSteps="0" rerouteNo="0" devices="tripinfo_939" vType="8" vaporized=""/>
    <tripinfo id="162" depart="25.00" departLane="48_0" departPos="6.26" departSpeed="0.00" departDelay="-0.90" arrival="447.00" arrivalLane="11_0" arrivalPos="195.25" arrivalSpeed="2.09" duration="422.00" routeLength="379.49" waitSteps="302" rerouteNo="0" devices="tripinfo_162" vType="4" vaporized=""/>
    <tripinfo id="16" depart="449.00" departLane="6_0" departPos="4.17" departSpeed="0.00" departDelay="397.00" arrival="462.00" arrivalLane="8_0" arrivalPos="195.25" arrivalSpeed="4.86" duration="13.00" routeLength="381.58" waitSteps="0" rerouteNo="0" devices="tripinfo_16" vType="8" vaporized=""/>
    <tripinfo id="504" depart="3.00" departLane="40_0" departPos="5.66" departSpeed="0.00" departDelay="-0.91" arrival="469.00" arrivalLane="1_0" arrivalPos="195.25" arrivalSpeed="2.09" duration="466.00" routeLength="384.84" waitSteps="276" rerouteNo="0" devices="tripinfo_504" vType="7" vaporized=""/>
    <tripinfo id="373" depart="116.00" departLane="57_0" departPos="4.17" departSpeed="0.00" departDelay="-0.96" arrival="476.00" arrivalLane="11_0" arrivalPos="195.25" arrivalSpeed="4.60" duration="360.00" routeLength="381.58" waitSteps="302" rerouteNo="0" devices="tripinfo_373" vType="8" vaporized=""/>
    <tripinfo id="888" depart="19.00" departLane="40_0" departPos="5.66" departSpeed="0.00" departDelay="-0.44" arrival="478.00" arrivalLane="1_0" arrivalPos="195.25" arrivalSpeed="2.09" duration="459.00" routeLength="384.84" waitSteps="268" rerouteNo="0" devices="tripinfo_888" vType="7" vaporized=""/>
    <tripinfo id="222" depart="46.00" departLane="40_0" departPos="4.17" departSpeed="0.00" departDelay="-0.03" arrival="484.00" arrivalLane="1_0" arrivalPos="195.25" arrivalSpeed="3.66" duration="438.00" routeLength="386.33" waitSteps="266" rerouteNo="0" devices="tripinfo_222" vType="8" vaporized=""/>
    <tripinfo id="199" depart="486.00" departLane="8_0" departPos="5.66" departSpeed="0.00" departDelay="464.02" arrival="-0.00" arrivalLane="" arrivalPos="-1.00" arrivalSpeed="-1.00" duration="-486.00" routeLength="189.59" waitSteps="0" rerouteNo="0" devices="tripinfo_199" vType="7" vaporized=""/>
    <tripinfo id="825" depart="145.00" departLane="49_0" departPos="6.26" departSpeed="0.00" departDelay="-0.36" arrival="501.00" arrivalLane="1_0" arrivalPos="195.25" arrivalSpeed="2.11" duration="356.00" routeLength="379.49" waitSteps="149" rerouteNo="0" devices="tripinfo_825" vType="4" vaporized=""/>
    <tripinfo id="599" depart="154.00" departLane="49_0" departPos="2.43" departSpeed="0.00" departDelay="5.94" arrival="540.00" arrivalLane="1_0" arrivalPos="195.25" arrivalSpeed="1.80" duration="386.00" routeLength="383.32" waitSteps="123" rerouteNo="0" devices="tripinfo_599" vType="6" vaporized=""/>
    <tripinfo id="362" depart="44.00" departLane="13_0" departPos="1.64" departSpeed="0.00" departDelay="-0.58" arrival="565.00" arrivalLane="11_0" arrivalPos="195.25" arrivalSpeed="4.60" duration="521.00" routeLength="384.11" waitSteps="421" rerouteNo="0" devices="tripinfo_362" vType="5" vaporized=""/>
    <tripinfo id="837" depart="72.00" departLane="23_0" departPos="6.26" departSpeed="0.00" departDelay="-0.43" arrival="576.00" arrivalLane="21_0" arrivalPos="195.25" arrivalSpeed="2.09" duration="504.00" routeLength="379.49" waitSteps="17" rerouteNo="0" devices="tripinfo_837" vType="4" vaporized=""/>
    <tripinfo id="0" depart="1.00" departLane="18_0" departPos="6.13" departSpeed="0.00" departDelay="-0.33" arrival="578.00" arrivalLane="18_0" arrivalPos="195.25" arrivalSpeed="0.20" duration="577.00" routeLength="189.12" waitSteps="0" rerouteNo="0" devices="tripinfo_0" vType="1" vaporized=""/>
    <tripinfo id="359" depart="1.00" departLane="28_0" departPos="5.19" departSpeed="0.00" departDelay="-0.85" arrival="581.00" arrivalLane="28_0" arrivalPos="195.25" arrivalSpeed="0.22" duration="580.00" routeLength="190.06" waitSteps="0" rerouteNo="0" devices="tripinfo_359" vType="3" vaporized=""/>
    <tripinfo id="930" depart="27.00" departLane="28_0" departPos="2.43" departSpeed="0.00" departDelay="-0.89" arrival="588.00" arrivalLane="28_0" arrivalPos="195.25" arrivalSpeed="1.85" duration="561.00" routeLength="192.82" waitSteps="19" rerouteNo="0" devices="tripinfo_930" vType="6" vaporized=""/>
    <tripinfo id="237" depart="41.00" departLane="18_0" departPos="4.17" departSpeed="0.00" departDelay="-0.65" arrival="590.00" arrivalLane="18_0" arrivalPos="195.25" arrivalSpeed="3.46" duration="549.00" routeLength="191.08" waitSteps="6" rerouteNo="0" devices="tripinfo_237" vType="8" vaporized=""/>
    <tripinfo id="636" depart="27.00" departLane="76_0" departPos="6.13" departSpeed="0.00" departDelay="-0.47" arrival="590.00" arrivalLane="76_0" arrivalPos="195.25" arrivalSpeed="0.45" duration="563.00" routeLength="189.12" waitSteps="0" rerouteNo="0" devices="tripinfo_636" vType="1" vaporized=""/>
    <tripinfo id="471" depart="57.00" departLane="28_0" departPos="4.17" departSpeed="0.00" departDelay="19.59" arrival="595.00" arrivalLane="28_0" arrivalPos="195.25" arrivalSpeed="3.39" duration="538.00" routeLength="191.08" waitSteps="19" rerouteNo="0" devices="tripinfo_471" vType="8" vaporized=""/>
    <tripinfo id="510" depart="73.00" departLane="18_0" departPos="2.43" departSpeed="0.00" departDelay="6.87" arrival="599.00" arrivalLane="18_0" arrivalPos="195.25" arrivalSpeed="1.81" duration="526.00" routeLength="192.82" waitSteps="17" rerouteNo="0" devices="tripinfo_510" vType="6" vaporized=""/>
    <tripinfo id="727" depart="103.00" departLane="28_0" departPos="4.17" departSpeed="0.00" departDelay="-0.68" arrival="600.00" arrivalLane="28_0" arrivalPos="195.25" arrivalSpeed="3.86" duration="497.00" routeLength="191.08" waitSteps="28" rerouteNo="0" devices="tripinfo_727" vType="8" vaporized=""/>
    <tripinfo id="782" depart="151.00" departLane="76_0" departPos="2.43" departSpeed="0.00" departDelay="-0.53" arrival="602.00" arrivalLane="76_0" arrivalPos="195.25" arrivalSpeed="1.39" duration="451.00" routeLength="192.82" waitSteps="1" rerouteNo="0" devices="tripinfo_782" vType="6" vaporized=""/>
    <tripinfo id="355" depart="109.00" departLane="18_0" departPos="2.43" departSpeed="0.00" departDelay="-0.73" arrival="604.00" arrivalLane="18_0" arrivalPos="195.25" arrivalSpeed="1.71" duration="495.00" routeLength="192.82" waitSteps="21" rerouteNo="0" devices="tripinfo_355" vType="6" vaporized=""/>
    <tripinfo id="350" depart="157.00" departLane="76_0" departPos="1.64" departSpeed="0.00" departDelay="4.82" arrival="607.00" arrivalLane="76_0" arrivalPos="195.25" arrivalSpeed="3.73" duration="450.00" routeLength="193.61" waitSteps="6" rerouteNo="0" devices="tripinfo_350" vType="5" vaporized=""/>
    <tripinfo id="643" depart="10.00" departLane="16_0" departPos="6.64" departSpeed="0.00" departDelay="-0.64" arrival="609.00" arrivalLane="18_0" arrivalPos="195.25" arrivalSpeed="1.98" duration="599.00" routeLength="379.11" waitSteps="137" rerouteNo="0" devices="tripinfo_643" vType="9" vaporized=""/>
    <tripinfo id="966" depart="144.00" departLane="28_0" departPos="6.64" departSpeed="0.00" departDelay="-0.83" arrival="611.00" arrivalLane="28_0" arrivalPos="195.25" arrivalSpeed="1.99" duration="467.00" routeLength="188.61" waitSteps="57" rerouteNo="0" devices="tripinfo_966" vType="9" vaporized=""/>
    <tripinfo id="863" depart="215.00" departLane="76_0" departPos="6.64" departSpeed="0.00" departDelay="-0.33" arrival="613.00" arrivalLane="76_0" arrivalPos="195.25" arrivalSpeed="1.96" duration="398.00" routeLength="188.61" waitSteps="52" rerouteNo="0" devices="tripinfo_863" vType="9" vaporized=""/>
    <tripinfo id="573" depart="152.00" departLane="28_0" departPos="1.20" departSpeed="0.00" departDelay="1.12" arrival="617.00" arrivalLane="28_0" arrivalPos="195.25" arrivalSpeed="4.23" duration="465.00" routeLength="194.05" waitSteps="9" rerouteNo="0" devices="tripinfo_573" vType="2" vaporized=""/>
    <tripinfo id="836" depart="90.00" departLane="16_0" departPos="2.43" departSpeed="0.00" departDelay="-0.90" arrival="619.00" arrivalLane="18_0" arrivalPos="195.25" arrivalSpeed="1.72" duration="529.00" routeLength="383.32" waitSteps="21" rerouteNo="0" devices="tripinfo_836" vType="6" vaporized=""/>
    <tripinfo id="750" depart="229.00" departLane="76_0" departPos="1.20" departSpeed="0.00" departDelay="-0.94" arrival="619.00" arrivalLane="76_0" arrivalPos="195.25" arrivalSpeed="4.27" duration="390.00" routeLength="194.05" waitSteps="11" rerouteNo="0" devices="tripinfo_750" vType="2" vaporized=""/>
    <tripinfo id="367" depart="182.00" departLane="28_0" departPos="1.20" departSpeed="0.00" departDelay="25.77" arrival="621.00" arrivalLane="28_0" arrivalPos="195.25" arrivalSpeed="4.26" duration="439.00" routeLength="194.05" waitSteps="5" rerouteNo="0" devices="tripinfo_367" vType="2" vaporized=""/>
    <tripinfo id="474" depart="53.00" departLane="74_0" departPos="6.13" departSpeed="0.00" departDelay="-0.51" arrival="623.00" arrivalLane="74_0" arrivalPos="195.25" arrivalSpeed="0.45" duration="570.00" routeLength="189.12" waitSteps="0" rerouteNo="0" devices="tripinfo_474" vType="1" vaporized=""/>
    <tripinfo id="794" depart="243.00" departLane="18_0" departPos="1.64" departSpeed="0.00" departDelay="-0.24" arrival="624.00" arrivalLane="18_0" arrivalPos="195.25" arrivalSpeed="4.78" duration="381.00" routeLength="193.61" waitSteps="12" rerouteNo="0" devices="tripinfo_794" vType="5" vaporized=""/>
    <tripinfo id="763" depart="19.00" departLane="47_0" departPos="5.19" departSpeed="0.00" departDelay="-0.15" arrival="628.00" arrivalLane="47_0" arrivalPos="195.25" arrivalSpeed="0.42" duration="609.00" routeLength="190.06" waitSteps="0" rerouteNo="0" devices="tripinfo_763" vType="3" vaporized=""/>
    <tripinfo id="387" depart="13.00" departLane="11_0" departPos="5.19" departSpeed="0.00" departDelay="-0.81" arrival="630.00" arrivalLane="11_0" arrivalPos="195.25" arrivalSpeed="0.37" duration="617.00" routeLength="190.06" waitSteps="0" rerouteNo="0" devices="tripinfo_387" vType="3" vaporized=""/>
    <tripinfo id="885" depart="256.00" departLane="18_0" departPos="6.64" departSpeed="0.00" departDelay="-0.73" arrival="631.00" arrivalLane="18_0" arrivalPos="195.25" arrivalSpeed="2.21" duration="375.00" routeLength="188.61" waitSteps="59" rerouteNo="0" devices="tripinfo_885" vType="9" vaporized=""/>
    <tripinfo id="648" depart="213.00" departLane="28_0" departPos="6.64" departSpeed="0.00" departDelay="14.46" arrival="631.00" arrivalLane="28_0" arrivalPos="195.25" arrivalSpeed="2.20" duration="418.00" routeLength="188.61" waitSteps="45" rerouteNo="0" devices="tripinfo_648" vType="9" vaporized=""/>
    <tripinfo id="388" depart="153.00" departLane="74_0" departPos="6.64" departSpeed="0.00" departDelay="-0.47" arrival="632.00" arrivalLane="74_0" arrivalPos="195.25" arrivalSpeed="1.92" duration="479.00" routeLength="188.61" waitSteps="48" rerouteNo="0" devices="tripinfo_388" vType="9" vaporized=""/>
    <tripinfo id="659" depart="105.00" departLane="47_0" departPos="1.64" departSpeed="0.00" departDelay="-0.65" arrival="633.00" arrivalLane="47_0" arrivalPos="195.25" arrivalSpeed="3.54" duration="528.00" routeLength="193.61" waitSteps="9" rerouteNo="0" devices="tripinfo_659" vType="5" vaporized=""/>
    <tripinfo id="756" depart="234.00" departLane="28_0" departPos="1.64" departSpeed="0.00" departDelay="13.55" arrival="636.00" arrivalLane="28_0" arrivalPos="195.25" arrivalSpeed="4.63" duration="402.00" routeLength="193.61" waitSteps="10" rerouteNo="0" devices="tripinfo_756" vType="5" vaporized=""/>
    <tripinfo id="846" depart="38.00" departLane="11_0" departPos="2.43" departSpeed="0.00" departDelay="13.82" arrival="637.00" arrivalLane="11_0" arrivalPos="195.25" arrivalSpeed="1.76" duration="599.00" routeLength="192.82" waitSteps="24" rerouteNo="0" devices="tripinfo_846" vType="6" vaporized=""/>
    <tripinfo id="784" depart="45.00" departLane="41_0" departPos="5.19" departSpeed="0.00" departDelay="-0.82" arrival="637.00" arrivalLane="41_0" arrivalPos="195.25" arrivalSpeed="0.46" duration="592.00" routeLength="190.06" waitSteps="0" rerouteNo="0" devices="tripinfo_784" vType="3" vaporized=""/>
    <tripinfo id="845" depart="256.00" departLane="28_0" departPos="1.64" departSpeed="0.00" departDelay="33.35" arrival="640.00" arrivalLane="28_0" arrivalPos="195.25" arrivalSpeed="4.29" duration="384.00" routeLength="193.61" waitSteps="6" rerouteNo="0" devices="tripinfo_845" vType="5" vaporized=""/>
    <tripinfo id="527" depart="137.00" departLane="47_0" departPos="1.20" departSpeed="0.00" departDelay="-0.56" arrival="640.00" arrivalLane="47_0" arrivalPos="195.25" arrivalSpeed="3.60" duration="503.00" routeLength="194.05" waitSteps="41" rerouteNo="0" devices="tripinfo_527" vType="2" vaporized=""/>
    <tripinfo id="203" depart="170.00" departLane="74_0" departPos="5.66" departSpeed="0.00" departDelay="-0.36" arrival="641.00" arrivalLane="74_0" arrivalPos="195.25" arrivalSpeed="2.09" duration="471.00" routeLength="189.59" waitSteps="21" rerouteNo="0" devices="tripinfo_203" vType="7" vaporized=""/>
    <tripinfo id="816" depart="275.00" departLane="28_0" departPos="1.64" departSpeed="0.00" departDelay="20.76" arrival="643.00" arrivalLane="28_0" arrivalPos="195.25" arrivalSpeed="4.18" duration="368.00" routeLength="193.61" waitSteps="11" rerouteNo="0" devices="tripinfo_816" vType="5" vaporized=""/>
    <tripinfo id="408" depart="15.00" departLane="57_0" departPos="1.20" departSpeed="0.00" departDelay="-0.77" arrival="643.00" arrivalLane="11_0" arrivalPos="195.25" arrivalSpeed="3.46" duration="628.00" routeLength="384.55" waitSteps="13" rerouteNo="0" devices="tripinfo_408" vType="2" vaporized=""/>
    <tripinfo id="336" depart="28.00" departLane="8_0" departPos="5.19" departSpeed="0.00" departDelay="-0.61" arrival="644.00" arrivalLane="8_0" arrivalPos="195.25" arrivalSpeed="0.46" duration="616.00" routeLength="190.06" waitSteps="0" rerouteNo="0" devices="tripinfo_336" vType="3" vaporized=""/>
    <tripinfo id="909" depart="64.00" departLane="41_0" departPos="2.43" departSpeed="0.00" departDelay="5.48" arrival="644.00" arrivalLane="41_0" arrivalPos="195.25" arrivalSpeed="1.40" duration="580.00" routeLength="192.82" waitSteps="20" rerouteNo="0" devices="tripinfo_909" vType="6" vaporized=""/>
    <tripinfo id="35" depart="167.00" departLane="47_0" departPos="6.26" departSpeed="0.00" departDelay="-0.49" arrival="647.00" arrivalLane="47_0" arrivalPos="195.25" arrivalSpeed="2.09" duration="480.00" routeLength="188.99" waitSteps="28" rerouteNo="0" devices="tripinfo_35" vType="4" vaporized=""/>
    <tripinfo id="473" depart="27.00" departLane="57_0" departPos="4.17" departSpeed="0.00" departDelay="-0.49" arrival="648.00" arrivalLane="11_0" arrivalPos="195.25" arrivalSpeed="4.04" duration="621.00" routeLength="381.58" waitSteps="24" rerouteNo="0" devices="tripinfo_473" vType="8" vaporized=""/>