<?xml version="1.0" encoding="UTF-8"?>

<!-- generated on Mon Nov  4 13:02:16 2013 by SUMO sumo Version 0.17.1
<?xml version="1.0" encoding="UTF-8"?>

<configuration xmlns:xsi="http://www.w3.org/2001/XMLSchema-instance" xsi:noNamespaceSchemaLocation="http://sumo.sf.net/xsd/sumoConfiguration.xsd">

    <input>
        <net-file value="road_map/test.net.xml"/>
        <route-files value="road_map/test.rou.xml"/>
        <additional-files value="road_map/e1.add.xml"/>
    </input>

    <output>
        <tripinfo-output value="road_map/tripinfo.xml"/>
    </output>

    <time>
        <begin value="0"/>
    </time>

    <report>
        <verbose value="true"/>
        <no-step-log value="true"/>
    </report>

</configuration>
-->

<tripinfos>
    <tripinfo id="52" depart="46.00" departLane="28_0" departPos="7.77" departSpeed="0.00" departDelay="-0.41" arrival="103.00" arrivalLane="28_0" arrivalPos="195.25" arrivalSpeed="3.94" duration="57.00" routeLength="187.48" waitSteps="0" rerouteNo="0" devices="tripinfo_52" vType="7" vaporized=""/>
    <tripinfo id="53" depart="60.00" departLane="47_0" departPos="9.11" departSpeed="0.00" departDelay="-0.13" arrival="112.00" arrivalLane="47_0" arrivalPos="195.25" arrivalSpeed="3.71" duration="52.00" routeLength="186.14" waitSteps="0" rerouteNo="0" devices="tripinfo_53" vType="4" vaporized=""/>
    <tripinfo id="60" depart="66.00" departLane="47_0" departPos="7.77" departSpeed="0.00" departDelay="5.17" arrival="120.00" arrivalLane="47_0" arrivalPos="195.25" arrivalSpeed="4.01" duration="54.00" routeLength="187.48" waitSteps="0" rerouteNo="0" devices="tripinfo_60" vType="7" vaporized=""/>
    <tripinfo id="48" depart="13.00" departLane="31_0" departPos="5.21" departSpeed="0.00" departDelay="-0.58" arrival="171.00" arrivalLane="31_0" arrivalPos="195.25" arrivalSpeed="1.22" duration="158.00" routeLength="190.04" waitSteps="0" rerouteNo="0" devices="tripinfo_48" vType="9" vaporized=""/>
    <tripinfo id="10" depart="90.00" departLane="1_0" departPos="5.09" departSpeed="0.00" departDelay="-0.86" arrival="226.00" arrivalLane="1_0" arrivalPos="195.25" arrivalSpeed="1.56" duration="136.00" routeLength="190.16" waitSteps="0" rerouteNo="0" devices="tripinfo_10" vType="6" vaporized=""/>
    <tripinfo id="44" depart="99.00" departLane="1_0" departPos="5.09" departSpeed="0.00" departDelay="0.53" arrival="238.00" arrivalLane="1_0" arrivalPos="195.25" arrivalSpeed="1.52" duration="139.00" routeLength="190.16" waitSteps="1" rerouteNo="0" devices="tripinfo_44" vType="6" vaporized=""/>
    <tripinfo id="65" depart="197.00" departLane="31_0" departPos="9.11" departSpeed="0.00" departDelay="-0.02" arrival="249.00" arrivalLane="31_0" arrivalPos="195.25" arrivalSpeed="3.72" duration="52.00" routeLength="186.14" waitSteps="0" rerouteNo="0" devices="tripinfo_65" vType="4" vaporized=""/>
    <tripinfo id="30" depart="46.00" departLane="8_0" departPos="9.42" departSpeed="0.00" departDelay="-0.06" arrival="265.00" arrivalLane="8_0" arrivalPos="195.25" arrivalSpeed="1.20" duration="219.00" routeLength="185.83" waitSteps="0" rerouteNo="0" devices="tripinfo_30" vType="2" vaporized=""/>
    <tripinfo id="80" depart="62.00" departLane="8_0" departPos="3.83" departSpeed="0.00" departDelay="-0.89" arrival="274.00" arrivalLane="8_0" arrivalPos="195.25" arrivalSpeed="2.80" duration="212.00" routeLength="191.42" waitSteps="0" rerouteNo="0" devices="tripinfo_80" vType="5" vaporized=""/>
    <tripinfo id="41" depart="164.00" departLane="72_0" departPos="5.09" departSpeed="0.00" departDelay="-0.72" arrival="305.00" arrivalLane="72_0" arrivalPos="195.25" arrivalSpeed="1.21" duration="141.00" routeLength="190.16" waitSteps="0" rerouteNo="0" devices="tripinfo_41" vType="6" vaporized=""/>
    <tripinfo id="24" depart="150.00" departLane="21_0" departPos="5.21" departSpeed="0.00" departDelay="-0.68" arrival="309.00" arrivalLane="21_0" arrivalPos="195.25" arrivalSpeed="1.20" duration="159.00" routeLength="190.04" waitSteps="0" rerouteNo="0" devices="tripinfo_24" vType="9" vaporized=""/>
    <tripinfo id="21" depart="289.00" departLane="72_0" departPos="7.77" departSpeed="0.00" departDelay="-0.95" arrival="345.00" arrivalLane="72_0" arrivalPos="195.25" arrivalSpeed="3.96" duration="56.00" routeLength="187.48" waitSteps="0" rerouteNo="0" devices="tripinfo_21" vType="7" vaporized=""/>
    <tripinfo id="15" depart="238.00" departLane="41_0" departPos="6.71" departSpeed="0.00" departDelay="-0.45" arrival="349.00" arrivalLane="41_0" arrivalPos="195.25" arrivalSpeed="1.48" duration="111.00" routeLength="188.54" waitSteps="0" rerouteNo="0" devices="tripinfo_15" vType="1" vaporized=""/>
    <tripinfo id="71" depart="119.00" departLane="16_0" departPos="6.71" departSpeed="0.00" departDelay="47.09" arrival="377.00" arrivalLane="18_0" arrivalPos="195.25" arrivalSpeed="1.39" duration="258.00" routeLength="379.04" waitSteps="26" rerouteNo="0" devices="tripinfo_71" vType="1" vaporized=""/>
    <tripinfo id="75" depart="241.00" departLane="1_0" departPos="5.47" departSpeed="0.00" departDelay="-0.79" arrival="393.00" arrivalLane="1_0" arrivalPos="195.25" arrivalSpeed="1.29" duration="152.00" routeLength="189.78" waitSteps="0" rerouteNo="0" devices="tripinfo_75" vType="3" vaporized=""/>
    <tripinfo id="77" depart="184.00" departLane="8_0" departPos="9.42" departSpeed="0.00" departDelay="-0.21" arrival="401.00" arrivalLane="8_0" arrivalPos="195.25" arrivalSpeed="1.28" duration="217.00" routeLength="185.83" waitSteps="0" rerouteNo="0" devices="tripinfo_77" vType="2" vaporized=""/>
    <tripinfo id="27" depart="329.00" departLane="43_0" departPos="5.47" departSpeed="0.00" departDelay="46.44" arrival="483.00" arrivalLane="43_0" arrivalPos="195.25" arrivalSpeed="1.35" duration="154.00" routeLength="189.78" waitSteps="0" rerouteNo="0" devices="tripinfo_27" vType="3" vaporized=""/>
    <tripinfo id="55" depart="121.00" departLane="48_0" departPos="7.77" departSpeed="0.00" departDelay="-0.62" arrival="530.00" arrivalLane="11_0" arrivalPos="195.25" arrivalSpeed="4.09" duration="409.00" routeLength="377.98" waitSteps="302" rerouteNo="0" devices="tripinfo_55" vType="7" vaporized=""/>
    <tripinfo id="4" depart="102.00" departLane="55_0" departPos="7.77" departSpeed="0.00" departDelay="-0.62" arrival="534.00" arrivalLane="45_0" arrivalPos="195.25" arrivalSpeed="4.06" duration="432.00" routeLength="568.48" waitSteps="249" rerouteNo="0" devices="tripinfo_4" vType="7" vaporized=""/>
    <tripinfo id="99" depart="121.00" departLane="53_0" departPos="5.21" departSpeed="0.00" departDelay="-0.79" arrival="608.00" arrivalLane="43_0" arrivalPos="195.25" arrivalSpeed="1.29" duration="487.00" routeLength="571.04" waitSteps="0" rerouteNo="0" devices="tripinfo_99" vType="9" vaporized=""/>
    <tripinfo id="95" depart="40.00" departLane="73_0" departPos="9.42" departSpeed="0.00" departDelay="-0.66" arrival="615.00" arrivalLane="31_0" arrivalPos="195.25" arrivalSpeed="0.79" duration="575.00" routeLength="381.08" waitSteps="130" rerouteNo="0" devices="tripinfo_95" vType="2" vaporized=""/>
    <tripinfo id="58" depart="145.00" departLane="73_0" departPos="5.21" departSpeed="0.00" departDelay="-0.22" arrival="630.00" arrivalLane="31_0" arrivalPos="195.25" arrivalSpeed="1.04" duration="485.00" routeLength="385.29" waitSteps="90" rerouteNo="0" devices="tripinfo_58" vType="9" vaporized=""/>
    <tripinfo id="9" depart="233.00" departLane="73_0" departPos="6.71" departSpeed="0.00" departDelay="-0.05" arrival="638.00" arrivalLane="31_0" arrivalPos="195.25" arrivalSpeed="1.43" duration="405.00" routeLength="383.79" waitSteps="51" rerouteNo="0" devices="tripinfo_9" vType="1" vaporized=""/>
    <tripinfo id="23" depart="235.00" departLane="57_0" departPos="7.77" departSpeed="0.00" departDelay="-0.94" arrival="652.00" arrivalLane="11_0" arrivalPos="195.25" arrivalSpeed="3.96" duration="417.00" routeLength="377.98" waitSteps="295" rerouteNo="0" devices="tripinfo_23" vType="7" vaporized=""/>
    <tripinfo id="91" depart="212.00" departLane="33_0" departPos="9.42" departSpeed="0.00" departDelay="-0.67" arrival="740.00" arrivalLane="31_0" arrivalPos="195.25" arrivalSpeed="0.87" duration="528.00" routeLength="376.33" waitSteps="86" rerouteNo="0" devices="tripinfo_91" vType="2" vaporized=""/>
    <tripinfo id="43" depart="63.00" departLane="50_0" departPos="3.83" departSpeed="0.00" departDelay="-0.66" arrival="748.00" arrivalLane="1_0" arrivalPos="195.25" arrivalSpeed="3.17" duration="685.00" routeLength="762.92" waitSteps="387" rerouteNo="0" devices="tripinfo_43" vType="5" vaporized=""/>
    <tripinfo id="42" depart="280.00" departLane="57_0" departPos="5.47" departSpeed="0.00" departDelay="-0.42" arrival="774.00" arrivalLane="11_0" arrivalPos="195.25" arrivalSpeed="1.29" duration="494.00" routeLength="380.28" waitSteps="176" rerouteNo="0" devices="tripinfo_42" vType="3" vaporized=""/>
    <tripinfo id="73" depart="14.00" departLane="24_0" departPos="7.77" departSpeed="0.00" departDelay="-0.19" arrival="794.00" arrivalLane="28_0" arrivalPos="195.25" arrivalSpeed="3.98" duration="780.00" routeLength="568.48" waitSteps="385" rerouteNo="0" devices="tripinfo_73" vType="7" vaporized=""/>
    <tripinfo id="98" depart="203.00" departLane="46_0" departPos="7.77" departSpeed="0.00" departDelay="-0.40" arrival="847.00" arrivalLane="45_0" arrivalPos="195.25" arrivalSpeed="3.99" duration="644.00" routeLength="573.23" waitSteps="471" rerouteNo="0" devices="tripinfo_98" vType="7" vaporized=""/>
    <tripinfo id="40" depart="147.00" departLane="16_0" departPos="9.42" departSpeed="0.00" departDelay="-0.31" arrival="877.00" arrivalLane="18_0" arrivalPos="195.25" arrivalSpeed="1.12" duration="730.00" routeLength="376.33" waitSteps="302" rerouteNo="0" devices="tripinfo_40" vType="2" vaporized=""/>
    <tripinfo id="31" depart="274.00" departLane="64_0" departPos="5.47" departSpeed="0.00" departDelay="-0.65" arrival="882.00" arrivalLane="31_0" arrivalPos="195.25" arrivalSpeed="1.22" duration="608.00" routeLength="380.28" waitSteps="302" rerouteNo="0" devices="tripinfo_31" vType="3" vaporized=""/>
    <tripinfo id="26" depart="261.00" departLane="16_0" departPos="5.09" departSpeed="0.00" departDelay="-0.56" arrival="888.00" arrivalLane="18_0" arrivalPos="195.25" arrivalSpeed="2.03" duration="627.00" routeLength="380.66" waitSteps="343" rerouteNo="0" devices="tripinfo_26" vType="6" vaporized=""/>
    <tripinfo id="84" depart="435.00" departLane="14_0" departPos="5.09" departSpeed="0.00" departDelay="306.29" arrival="901.00" arrivalLane="18_0" arrivalPos="195.25" arrivalSpeed="1.78" duration="466.00" routeLength="571.16" waitSteps="47" rerouteNo="0" devices="tripinfo_84" vType="6" vaporized=""/>
    <tripinfo id="45" depart="448.00" departLane="14_0" departPos="7.77" departSpeed="0.00" departDelay="172.79" arrival="908.00" arrivalLane="18_0" arrivalPos="195.25" arrivalSpeed="3.58" duration="460.00" routeLength="568.48" waitSteps="45" rerouteNo="0" devices="tripinfo_45" vType="7" vaporized=""/>
    <tripinfo id="37" depart="320.00" departLane="6_0" departPos="5.21" departSpeed="0.00" departDelay="-0.19" arrival="918.00" arrivalLane="8_0" arrivalPos="195.25" arrivalSpeed="1.08" duration="598.00" routeLength="380.54" waitSteps="274" rerouteNo="0" devices="tripinfo_37" vType="9" vaporized=""/>
    <tripinfo id="96" depart="329.00" departLane="4_0" departPos="9.11" departSpeed="0.00" departDelay="234.82" arrival="921.00" arrivalLane="8_0" arrivalPos="195.25" arrivalSpeed="3.72" duration="592.00" routeLength="567.14" waitSteps="309" rerouteNo="0" devices="tripinfo_96" vType="4" vaporized=""/>
    <tripinfo id="83" depart="335.00" departLane="4_0" departPos="7.77" departSpeed="0.00" departDelay="28.28" arrival="931.00" arrivalLane="8_0" arrivalPos="195.25" arrivalSpeed="3.93" duration="596.00" routeLength="568.48" waitSteps="384" rerouteNo="0" devices="tripinfo_83" vType="7" vaporized=""/>
    <tripinfo id="12" depart="135.00" departLane="34_0" departPos="5.09" departSpeed="0.00" departDelay="-0.53" arrival="936.00" arrivalLane="38_0" arrivalPos="195.25" arrivalSpeed="0.98" duration="801.00" routeLength="571.16" waitSteps="384" rerouteNo="0" devices="tripinfo_12" vType="6" vaporized=""/>
    <tripinfo id="17" depart="38.00" departLane="24_0" departPos="5.09" departSpeed="0.00" departDelay="-0.92" arrival="943.00" arrivalLane="28_0" arrivalPos="195.25" arrivalSpeed="1.63" duration="905.00" routeLength="571.16" waitSteps="199" rerouteNo="0" devices="tripinfo_17" vType="6" vaporized=""/>
    <tripinfo id="3" depart="450.00" departLane="13_0" departPos="9.11" departSpeed="0.00" departDelay="127.98" arrival="946.00" arrivalLane="11_0" arrivalPos="195.25" arrivalSpeed="3.69" duration="496.00" routeLength="376.64" waitSteps="348" rerouteNo="0" devices="tripinfo_3" vType="4" vaporized=""/>
    <tripinfo id="5" depart="435.00" departLane="13_0" departPos="9.11" departSpeed="0.00" departDelay="228.99" arrival="951.00" arrivalLane="11_0" arrivalPos="195.25" arrivalSpeed="3.71" duration="516.00" routeLength="376.64" waitSteps="403" rerouteNo="0" devices="tripinfo_5" vType="4" vaporized=""/>
    <tripinfo id="35" depart="306.00" departLane="24_0" departPos="5.47" departSpeed="0.00" departDelay="-0.44" arrival="969.00" arrivalLane="28_0" arrivalPos="195.25" arrivalSpeed="1.33" duration="663.00" routeLength="570.78" waitSteps="190" rerouteNo="0" devices="tripinfo_35" vType="3" vaporized=""/>
    <tripinfo id="66" depart="439.00" departLane="13_0" departPos="3.83" departSpeed="0.00" departDelay="188.73" arrival="977.00" arrivalLane="11_0" arrivalPos="195.25" arrivalSpeed="2.95" duration="538.00" routeLength="381.92" waitSteps="352" rerouteNo="0" devices="tripinfo_66" vType="5" vaporized=""/>
    <tripinfo id="20" depart="53.00" departLane="24_0" departPos="5.21" departSpeed="0.00" departDelay="-0.97" arrival="993.00" arrivalLane="28_0" arrivalPos="195.25" arrivalSpeed="1.32" duration="940.00" routeLength="571.04" waitSteps="328" rerouteNo="0" devices="tripinfo_20" vType="9" vaporized=""/>
    <tripinfo id="78" depart="92.00" departLane="9_0" departPos="7.77" departSpeed="0.00" departDelay="-0.12" arrival="1008.00" arrivalLane="45_0" arrivalPos="195.25" arrivalSpeed="4.03" duration="916.00" routeLength="573.23" waitSteps="707" rerouteNo="0" devices="tripinfo_78" vType="7" vaporized=""/>
    <tripinfo id="85" depart="340.00" departLane="50_0" departPos="9.11" departSpeed="0.00" departDelay="23.75" arrival="1064.00" arrivalLane="1_0" arrivalPos="195.25" arrivalSpeed="3.73" duration="724.00" routeLength="757.64" waitSteps="517" rerouteNo="0" devices="tripinfo_85" vType="4" vaporized=""/>
    <tripinfo id="36" depart="210.00" departLane="69_0" departPos="3.83" departSpeed="0.00" departDelay="-0.09" arrival="1094.00" arrivalLane="1_0" arrivalPos="195.25" arrivalSpeed="2.79" duration="884.00" routeLength="1143.92" waitSteps="413" rerouteNo="0" devices="tripinfo_36" vType="5" vaporized=""/>
    <tripinfo id="82" depart="34.00" departLane="59_0" departPos="5.47" departSpeed="0.00" departDelay="-0.20" arrival="1197.00" arrivalLane="1_0" arrivalPos="195.25" arrivalSpeed="1.19" duration="1163.00" routeLength="761.28" waitSteps="531" rerouteNo="0" devices="tripinfo_82" vType="3" vaporized=""/>
    <tripinfo id="51" depart="329.00" departLane="50_0" departPos="7.77" departSpeed="0.00" departDelay="239.42" arrival="1205.00" arrivalLane="1_0" arrivalPos="195.25" arrivalSpeed="3.41" duration="876.00" routeLength="758.98" waitSteps="493" rerouteNo="0" devices="tripinfo_51" vType="7" vaporized=""/>
    <tripinfo id="89" depart="40.00" departLane="63_0" departPos="5.09" departSpeed="0.00" departDelay="-0.70" arrival="1232.00" arrivalLane="43_0" arrivalPos="195.25" arrivalSpeed="1.76" duration="1192.00" routeLength="952.16" waitSteps="487" rerouteNo="0" devices="tripinfo_89" vType="6" vaporized=""/>
    <tripinfo id="34" depart="119.00" departLane="63_0" departPos="5.47" departSpeed="0.00" departDelay="-0.27" arrival="1252.00" arrivalLane="43_0" arrivalPos="195.25" arrivalSpeed="1.17" duration="1133.00" routeLength="951.78" waitSteps="339" rerouteNo="0" devices="tripinfo_34" vType="3" vaporized=""/>
    <tripinfo id="70" depart="41.00" departLane="10_0" departPos="7.77" departSpeed="0.00" departDelay="-0.04" arrival="1299.00" arrivalLane="18_0" arrivalPos="195.25" arrivalSpeed="3.79" duration="1258.00" routeLength="954.23" waitSteps="949" rerouteNo="0" devices="tripinfo_70" vType="7" vaporized=""/>
    <tripinfo id="59" depart="47.00" departLane="58_0" departPos="5.47" departSpeed="0.00" departDelay="-0.23" arrival="1300.00" arrivalLane="11_0" arrivalPos="195.25" arrivalSpeed="1.14" duration="1253.00" routeLength="761.28" waitSteps="627" rerouteNo="0" devices="tripinfo_59" vType="3" vaporized=""/>
    <tripinfo id="7" depart="147.00" departLane="22_0" departPos="7.77" departSpeed="0.00" departDelay="-0.42" arrival="1392.00" arrivalLane="28_0" arrivalPos="195.25" arrivalSpeed="3.81" duration="1245.00" routeLength="758.98" waitSteps="793" rerouteNo="0" devices="tripinfo_7" vType="7" vaporized=""/>
    <tripinfo id="13" depart="168.00" departLane="20_0" departPos="9.11" departSpeed="0.00" departDelay="-0.01" arrival="1407.00" arrivalLane="28_0" arrivalPos="195.25" arrivalSpeed="3.72" duration="1239.00" routeLength="952.89" waitSteps="673" rerouteNo="0" devices="tripinfo_13" vType="4" vaporized=""/>
    <tripinfo id="38" depart="137.00" departLane="69_0" departPos="3.83" departSpeed="0.00" departDelay="-0.40" arrival="1433.00" arrivalLane="1_0" arrivalPos="195.25" arrivalSpeed="2.98" duration="1296.00" routeLength="1143.92" waitSteps="751" rerouteNo="0" devices="tripinfo_38" vType="5" vaporized=""/>
    <tripinfo id="49" depart="5.00" departLane="30_0" departPos="9.42" departSpeed="0.00" departDelay="-0.07" arrival="1524.00" arrivalLane="38_0" arrivalPos="195.25" arrivalSpeed="0.86" duration="1519.00" routeLength="952.58" waitSteps="367" rerouteNo="0" devices="tripinfo_49" vType="2" vaporized=""/>
    <tripinfo id="62" depart="192.00" departLane="21_0" departPos="2.32" departSpeed="0.00" departDelay="-0.50" arrival="1853.00" arrivalLane="21_0" arrivalPos="195.25" arrivalSpeed="0.08" duration="1661.00" routeLength="192.93" waitSteps="474" rerouteNo="0" devices="tripinfo_62" vType="8" vaporized=""/>
    <tripinfo id="1" depart="213.00" departLane="30_0" departPos="6.71" departSpeed="0.00" departDelay="-0.85" arrival="1888.00" arrivalLane="38_0" arrivalPos="195.25" arrivalSpeed="2.00" duration="1675.00" routeLength="955.29" waitSteps="974" rerouteNo="0" devices="tripinfo_1" vType="1" vaporized=""/>
    <tripinfo id="19" depart="288.00" departLane="21_0" departPos="2.32" departSpeed="0.00" departDelay="32.01" arrival="1958.00" arrivalLane="21_0" arrivalPos="195.25" arrivalSpeed="0.09" duration="1670.00" routeLength="192.93" waitSteps="505" rerouteNo="0" devices="tripinfo_19" vType="8" vaporized=""/>
    <tripinfo id="97" depart="244.00" departLane="56_0" departPos="5.47" departSpeed="0.00" departDelay="-0.05" arrival="1962.00" arrivalLane="21_0" arrivalPos="195.25" arrivalSpeed="1.24" duration="1718.00" routeLength="380.28" waitSteps="450" rerouteNo="0" devices="tripinfo_97" vType="3" vaporized=""/>
    <tripinfo id="86" depart="65.00" departLane="65_0" departPos="6.71" departSpeed="0.00" departDelay="-0.83" arrival="1970.00" arrivalLane="21_0" arrivalPos="195.25" arrivalSpeed="1.80" duration="1905.00" routeLength="379.04" waitSteps="919" rerouteNo="0" devices="tripinfo_86" vType="1" vaporized=""/>
    <tripinfo id="81" depart="288.00" departLane="23_0" departPos="6.71" departSpeed="0.00" departDelay="-0.57" arrival="1978.00" arrivalLane="21_0" arrivalPos="195.25" arrivalSpeed="1.96" duration="1690.00" routeLength="379.04" waitSteps="870" rerouteNo="0" devices="tripinfo_81" vType="1" vaporized=""/>
    <tripinfo id="69" depart="37.00" departLane="66_0" departPos="9.42" departSpeed="0.00" departDelay="-0.77" arrival="1999.00" arrivalLane="21_0" arrivalPos="195.25" arrivalSpeed="0.43" duration="1962.00" routeLength="757.33" waitSteps="852" rerouteNo="0" devices="tripinfo_69" vType="2" vaporized=""/>
    <tripinfo id="50" depart="68.00" departLane="66_0" departPos="5.47" departSpeed="0.00" departDelay="-0.61" arrival="2009.00" arrivalLane="21_0" arrivalPos="195.25" arrivalSpeed="1.35" duration="1941.00" routeLength="761.28" waitSteps="807" rerouteNo="0" devices="tripinfo_50" vType="3" vaporized=""/>
    <tripinfo id="68" depart="218.00" departLane="22_0" departPos="5.09" departSpeed="0.00" departDelay="-0.03" arrival="2014.00" arrivalLane="28_0" arrivalPos="195.25" arrivalSpeed="1.91" duration="1796.00" routeLength="761.66" waitSteps="611" rerouteNo="0" devices="tripinfo_68" vType="6" vaporized=""/>
    <tripinfo id="14" depart="142.00" departLane="66_0" departPos="7.77" departSpeed="0.00" departDelay="-0.97" arrival="2017.00" arrivalLane="21_0" arrivalPos="195.25" arrivalSpeed="3.17" duration="1875.00" routeLength="758.98" waitSteps="805" rerouteNo="0" devices="tripinfo_14" vType="7" vaporized=""/>
    <tripinfo id="76" depart="240.00" departLane="66_0" departPos="5.21" departSpeed="0.00" departDelay="-0.85" arrival="2040.00" arrivalLane="21_0" arrivalPos="195.25" arrivalSpeed="1.12" duration="1800.00" routeLength="761.54" waitSteps="923" rerouteNo="0" devices="tripinfo_76" vType="9" vaporized=""/>
    <tripinfo id="25" depart="254.00" departLane="3_0" departPos="9.11" departSpeed="0.00" departDelay="-0.90" arrival="2207.00" arrivalLane="1_0" arrivalPos="195.25" arrivalSpeed="3.71" duration="1953.00" routeLength="376.64" waitSteps="214" rerouteNo="0" devices="tripinfo_25" vType="4" vaporized=""/>
    <tripinfo id="72" depart="72.00" departLane="42_0" departPos="5.47" departSpeed="0.00" departDelay="-0.60" arrival="3274.00" arrivalLane="41_0" arrivalPos="195.25" arrivalSpeed="1.16" duration="3202.00" routeLength="575.53" waitSteps="2629" rerouteNo="0" devices="tripinfo_72" vType="3" vaporized=""/>
    <tripinfo id="90" depart="339.00" departLane="5_0" departPos="7.77" departSpeed="0.00" departDelay="-0.29" arrival="3282.00" arrivalLane="41_0" arrivalPos="195.25" arrivalSpeed="3.39" duration="2943.00" routeLength="568.48" waitSteps="2493" rerouteNo="0" devices="tripinfo_90" vType="7" vaporized=""/>
    <tripinfo id="22" depart="237.00" departLane="48_0" departPos="2.32" departSpeed="0.00" departDelay="-0.79" arrival="3814.00" arrivalLane="11_0" arrivalPos="195.25" arrivalSpeed="0.14" duration="3577.00" routeLength="383.43" waitSteps="1279" rerouteNo="0" devices="tripinfo_22" vType="8" vaporized=""/>
    <tripinfo id="46" depart="31.00" departLane="61_0" departPos="3.83" departSpeed="0.00" departDelay="-0.69" arrival="3859.00" arrivalLane="41_0" arrivalPos="195.25" arrivalSpeed="3.19" duration="3828.00" routeLength="953.42" waitSteps="3217" rerouteNo="0" devices="tripinfo_46" vType="5" vaporized=""/>
    <tripinfo id="0" depart="44.00" departLane="51_0" departPos="3.83" departSpeed="0.00" departDelay="-0.59" arrival="3882.00" arrivalLane="41_0" arrivalPos="195.25" arrivalSpeed="3.11" duration="3838.00" routeLength="572.42" waitSteps="3363" rerouteNo="0" devices="tripinfo_0" vType="5" vaporized=""/>
    <tripinfo id="2" depart="214.00" departLane="69_0" departPos="9.42" departSpeed="0.00" departDelay="2.72" arrival="3992.00" arrivalLane="1_0" arrivalPos="195.25" arrivalSpeed="1.42" duration="3778.00" routeLength="1138.33" waitSteps="1854" rerouteNo="0" devices="tripinfo_2" vType="2" vaporized=""/>
    <tripinfo id="79" depart="106.00" departLane="79_0" departPos="5.47" departSpeed="0.00" departDelay="-0.57" arrival="4002.00" arrivalLane="1_0" arrivalPos="195.25" arrivalSpeed="1.19" duration="3896.00" routeLength="1528.03" waitSteps="2052" rerouteNo="0" devices="tripinfo_79" vType="3" vaporized=""/>
    <tripinfo id="39" depart="307.00" departLane="5_0" departPos="5.47" departSpeed="0.00" departDelay="-0.53" arrival="4343.00" arrivalLane="41_0" arrivalPos="195.25" arrivalSpeed="1.24" duration="4036.00" routeLength="570.78" waitSteps="3479" rerouteNo="0" devices="tripinfo_39" vType="3" vaporized=""/>
    <tripinfo id="64" depart="248.00" departLane="2_0" departPos="5.09" departSpeed="0.00" departDelay="-0.31" arrival="4613.00" arrivalLane="8_0" arrivalPos="195.25" arrivalSpeed="1.92" duration="4365.00" routeLength="761.66" waitSteps="3632" rerouteNo="0" devices="tripinfo_64" vType="6" vaporized=""/>
    <tripinfo id="47" depart="441.00" departLane="51_0" departPos="5.09" departSpeed="0.00" departDelay="295.78" arrival="4981.00" arrivalLane="41_0" arrivalPos="195.25" arrivalSpeed="1.76" duration="4540.00" routeLength="571.16" waitSteps="3940" rerouteNo="0" devices="tripinfo_47" vType="6" vaporized=""/>
    <tripinfo id="61" depart="13.00" departLane="52_0" departPos="9.11" departSpeed="0.00" departDelay="-0.45" arrival="5274.00" arrivalLane="41_0" arrivalPos="195.25" arrivalSpeed="3.71" duration="5261.00" routeLength="948.14" waitSteps="4535" rerouteNo="0" devices="tripinfo_61" vType="4" vaporized=""/>
    <tripinfo id="93" depart="10.00" departLane="29_0" departPos="9.11" departSpeed="0.00" departDelay="-0.37" arrival="5615.00" arrivalLane="41_0" arrivalPos="195.25" arrivalSpeed="3.72" duration="5605.00" routeLength="1333.89" waitSteps="4525" rerouteNo="0" devices="tripinfo_93" vType="4" vaporized=""/>
    <tripinfo id="54" depart="104.00" departLane="24_0" departPos="2.32" departSpeed="0.00" departDelay="-0.70" arrival="6063.00" arrivalLane="28_0" arrivalPos="195.25" arrivalSpeed="0.10" duration="5959.00" routeLength="573.93" waitSteps="2483" rerouteNo="0" devices="tripinfo_54" vType="8" vaporized=""/>
    <tripinfo id="67" depart="238.00" departLane="24_0" departPos="5.09" departSpeed="0.00" departDelay="-0.20" arrival="6068.00" arrivalLane="28_0" arrivalPos="195.25" arrivalSpeed="1.27" duration="5830.00" routeLength="571.16" waitSteps="3383" rerouteNo="0" devices="tripinfo_67" vType="6" vaporized=""/>
    <tripinfo id="8" depart="276.00" departLane="62_0" departPos="6.71" departSpeed="0.00" departDelay="-0.33" arrival="6269.00" arrivalLane="41_0" arrivalPos="195.25" arrivalSpeed="1.58" duration="5993.00" routeLength="1331.54" waitSteps="4816" rerouteNo="0" devices="tripinfo_8" vType="1" vaporized=""/>
    <tripinfo id="57" depart="67.00" departLane="29_0" departPos="5.21" departSpeed="0.00" departDelay="-0.83" arrival="6303.00" arrivalLane="41_0" arrivalPos="195.25" arrivalSpeed="1.37" duration="6236.00" routeLength="1337.79" waitSteps="4882" rerouteNo="0" devices="tripinfo_57" vType="9" vaporized=""/>
    <tripinfo id="74" depart="335.00" departLane="17_0" departPos="3.83" departSpeed="0.00" departDelay="-0.92" arrival="6313.00" arrivalLane="41_0" arrivalPos="195.25" arrivalSpeed="3.03" duration="5978.00" routeLength="953.42" waitSteps="5272" rerouteNo="0" devices="tripinfo_74" vType="5" vaporized=""/>
    <tripinfo id="33" depart="267.00" departLane="29_0" departPos="6.71" departSpeed="0.00" departDelay="-0.92" arrival="6341.00" arrivalLane="41_0" arrivalPos="195.25" arrivalSpeed="1.47" duration="6074.00" routeLength="1336.29" waitSteps="4968" rerouteNo="0" devices="tripinfo_33" vType="1" vaporized=""/>
    <tripinfo id="11" depart="348.00" departLane="25_0" departPos="2.32" departSpeed="0.00" departDelay="-0.13" arrival="7540.00" arrivalLane="11_0" arrivalPos="195.25" arrivalSpeed="0.09" duration="7192.00" routeLength="764.43" waitSteps="2791" rerouteNo="0" devices="tripinfo_11" vType="8" vaporized=""/>
    <tripinfo id="29" depart="315.00" departLane="67_0" departPos="2.32" departSpeed="0.00" departDelay="-0.54" arrival="7819.00" arrivalLane="11_0" arrivalPos="195.25" arrivalSpeed="0.09" duration="7504.00" routeLength="764.43" waitSteps="2980" rerouteNo="0" devices="tripinfo_29" vType="8" vaporized=""/>
    <tripinfo id="94" depart="460.00" departLane="67_0" departPos="7.77" departSpeed="0.00" departDelay="109.56" arrival="7828.00" arrivalLane="11_0" arrivalPos="195.25" arrivalSpeed="2.50" duration="7368.00" routeLength="758.98" waitSteps="3864" rerouteNo="0" devices="tripinfo_94" vType="7" vaporized=""/>
    <tripinfo id="87" depart="97.00" departLane="77_0" departPos="9.11" departSpeed="0.00" departDelay="-0.86" arrival="7833.00" arrivalLane="11_0" arrivalPos="195.25" arrivalSpeed="3.71" duration="7736.00" routeLength="1143.39" waitSteps="4571" rerouteNo="0" devices="tripinfo_87" vType="4" vaporized=""/>
    <tripinfo id="6" depart="336.00" departLane="68_0" departPos="5.21" departSpeed="0.00" departDelay="102.94" arrival="7857.00" arrivalLane="11_0" arrivalPos="195.25" arrivalSpeed="1.37" duration="7521.00" routeLength="1142.54" waitSteps="4360" rerouteNo="0" devices="tripinfo_6" vType="9" vaporized=""/>
    <tripinfo id="88" depart="347.00" departLane="68_0" departPos="9.11" departSpeed="0.00" departDelay="59.04" arrival="7860.00" arrivalLane="11_0" arrivalPos="195.25" arrivalSpeed="3.70" duration="7513.00" routeLength="1138.64" waitSteps="4291" rerouteNo="0" devices="tripinfo_88" vType="4" vaporized=""/>
    <tripinfo id="92" depart="65.00" departLane="54_0" departPos="2.32" departSpeed="0.00" departDelay="-0.25" arrival="9233.00" arrivalLane="43_0" arrivalPos="195.25" arrivalSpeed="0.13" duration="9168.00" routeLength="954.93" waitSteps="3458" rerouteNo="0" devices="tripinfo_92" vType="8" vaporized=""/>
    <tripinfo id="32" depart="163.00" departLane="54_0" departPos="9.42" departSpeed="0.00" departDelay="42.17" arrival="9240.00" arrivalLane="43_0" arrivalPos="195.25" arrivalSpeed="1.40" duration="9077.00" routeLength="947.83" waitSteps="4895" rerouteNo="0" devices="tripinfo_32" vType="2" vaporized=""/>
    <tripinfo id="28" depart="272.00" departLane="54_0" departPos="5.21" departSpeed="0.00" departDelay="89.37" arrival="9256.00" arrivalLane="43_0" arrivalPos="195.25" arrivalSpeed="1.22" duration="8984.00" routeLength="952.04" waitSteps="5072" rerouteNo="0" devices="tripinfo_28" vType="9" vaporized=""/>