<?xml version="1.0" encoding="UTF-8"?>

<!-- generated on Wed 30 Oct 2013 11:26:04 PM PDT by SUMO gui Version 0.17.1
<?xml version="1.0" encoding="UTF-8"?>

<configuration xmlns:xsi="http://www.w3.org/2001/XMLSchema-instance" xsi:noNamespaceSchemaLocation="http://sumo.sf.net/xsd/sumo-gui.exeConfiguration.xsd">

    <input>
        <net-file value="../road_map/test.net.xml"/>
        <route-files value="../road_map/test.rou.xml"/>
        <additional-files value="../road_map/e1.add.xml"/>
    </input>

    <output>
        <tripinfo-output value="../road_map/tripinfo.xml"/>
    </output>

    <time>
        <begin value="0"/>
    </time>

    <report>
        <verbose value="true"/>
        <no-step-log value="true"/>
    </report>

</configuration>
-->

<tripinfos>
    <tripinfo id="65" depart="6.00" departLane="45_0" departPos="7.97" departSpeed="0.00" departDelay="-0.11" arrival="130.00" arrivalLane="45_0" arrivalPos="195.25" arrivalSpeed="1.44" duration="124.00" routeLength="187.28" waitSteps="1" rerouteNo="0" devices="tripinfo_65" vType="4" vaporized=""/>
    <tripinfo id="726" depart="119.00" departLane="43_0" departPos="7.54" departSpeed="0.00" departDelay="-0.06" arrival="185.00" arrivalLane="43_0" arrivalPos="195.25" arrivalSpeed="2.79" duration="66.00" routeLength="187.71" waitSteps="0" rerouteNo="0" devices="tripinfo_726" vType="8" vaporized=""/>
    <tripinfo id="139" depart="263.00" departLane="43_0" departPos="7.95" departSpeed="0.00" departDelay="-0.90" arrival="345.00" arrivalLane="43_0" arrivalPos="195.25" arrivalSpeed="2.38" duration="82.00" routeLength="187.30" waitSteps="0" rerouteNo="0" devices="tripinfo_139" vType="9" vaporized=""/>
    <tripinfo id="130" depart="316.00" departLane="78_0" departPos="7.54" departSpeed="0.00" departDelay="-0.93" arrival="383.00" arrivalLane="78_0" arrivalPos="195.25" arrivalSpeed="2.65" duration="67.00" routeLength="187.71" waitSteps="0" rerouteNo="0" devices="tripinfo_130" vType="8" vaporized=""/>
    <tripinfo id="641" depart="292.00" departLane="8_0" departPos="7.97" departSpeed="0.00" departDelay="-0.29" arrival="416.00" arrivalLane="8_0" arrivalPos="195.25" arrivalSpeed="1.63" duration="124.00" routeLength="187.28" waitSteps="0" rerouteNo="0" devices="tripinfo_641" vType="4" vaporized=""/>
    <tripinfo id="440" depart="411.00" departLane="48_0" departPos="9.60" departSpeed="0.00" departDelay="-0.64" arrival="605.00" arrivalLane="11_0" arrivalPos="195.25" arrivalSpeed="1.99" duration="194.00" routeLength="376.15" waitSteps="17" rerouteNo="0" devices="tripinfo_440" vType="6" vaporized=""/>
    <tripinfo id="802" depart="447.00" departLane="45_0" departPos="8.71" departSpeed="0.00" departDelay="-0.23" arrival="721.00" arrivalLane="45_0" arrivalPos="195.25" arrivalSpeed="0.91" duration="274.00" routeLength="186.54" waitSteps="0" rerouteNo="0" devices="tripinfo_802" vType="3" vaporized=""/>
    <tripinfo id="566" depart="441.00" departLane="51_0" departPos="9.60" departSpeed="0.00" departDelay="34.30" arrival="766.00" arrivalLane="41_0" arrivalPos="195.25" arrivalSpeed="2.37" duration="325.00" routeLength="566.65" waitSteps="59" rerouteNo="0" devices="tripinfo_566" vType="6" vaporized=""/>
    <tripinfo id="28" depart="98.00" departLane="27_0" departPos="7.95" departSpeed="0.00" departDelay="-0.57" arrival="824.00" arrivalLane="1_0" arrivalPos="195.25" arrivalSpeed="2.27" duration="726.00" routeLength="1139.80" waitSteps="136" rerouteNo="0" devices="tripinfo_28" vType="9" vaporized=""/>
    <tripinfo id="476" depart="773.00" departLane="74_0" departPos="8.19" departSpeed="0.00" departDelay="-0.58" arrival="912.00" arrivalLane="74_0" arrivalPos="195.25" arrivalSpeed="1.34" duration="139.00" routeLength="187.06" waitSteps="0" rerouteNo="0" devices="tripinfo_476" vType="5" vaporized=""/>
    <tripinfo id="924" depart="503.00" departLane="46_0" departPos="7.00" departSpeed="0.00" departDelay="-0.43" arrival="936.00" arrivalLane="45_0" arrivalPos="195.25" arrivalSpeed="2.07" duration="433.00" routeLength="574.00" waitSteps="73" rerouteNo="0" devices="tripinfo_924" vType="1" vaporized=""/>
    <tripinfo id="466" depart="661.00" departLane="56_0" departPos="2.81" departSpeed="0.00" departDelay="-0.99" arrival="962.00" arrivalLane="21_0" arrivalPos="195.25" arrivalSpeed="2.67" duration="301.00" routeLength="382.94" waitSteps="123" rerouteNo="0" devices="tripinfo_466" vType="2" vaporized=""/>
    <tripinfo id="148" depart="608.00" departLane="35_0" departPos="9.60" departSpeed="0.00" departDelay="-0.07" arrival="1140.00" arrivalLane="21_0" arrivalPos="195.25" arrivalSpeed="2.35" duration="532.00" routeLength="757.15" waitSteps="168" rerouteNo="0" devices="tripinfo_148" vType="6" vaporized=""/>
    <tripinfo id="455" depart="871.00" departLane="47_0" departPos="8.71" departSpeed="0.00" departDelay="-0.45" arrival="1145.00" arrivalLane="47_0" arrivalPos="195.25" arrivalSpeed="0.85" duration="274.00" routeLength="186.54" waitSteps="0" rerouteNo="0" devices="tripinfo_455" vType="3" vaporized=""/>
    <tripinfo id="691" depart="427.00" departLane="69_0" departPos="2.81" departSpeed="0.00" departDelay="-0.07" arrival="1196.00" arrivalLane="1_0" arrivalPos="195.25" arrivalSpeed="2.44" duration="769.00" routeLength="1144.94" waitSteps="245" rerouteNo="0" devices="tripinfo_691" vType="2" vaporized=""/>
    <tripinfo id="174" depart="173.00" departLane="34_0" departPos="8.71" departSpeed="0.00" departDelay="-0.95" arrival="1211.00" arrivalLane="38_0" arrivalPos="195.25" arrivalSpeed="0.82" duration="1038.00" routeLength="567.54" waitSteps="161" rerouteNo="0" devices="tripinfo_174" vType="3" vaporized=""/>
    <tripinfo id="994" depart="669.00" departLane="15_0" departPos="8.79" departSpeed="0.00" departDelay="-0.72" arrival="1216.00" arrivalLane="1_0" arrivalPos="195.25" arrivalSpeed="2.05" duration="547.00" routeLength="757.96" waitSteps="128" rerouteNo="0" devices="tripinfo_994" vType="7" vaporized=""/>
    <tripinfo id="393" depart="678.00" departLane="15_0" departPos="7.97" departSpeed="0.00" departDelay="4.09" arrival="1261.00" arrivalLane="1_0" arrivalPos="195.25" arrivalSpeed="1.51" duration="583.00" routeLength="758.78" waitSteps="42" rerouteNo="0" devices="tripinfo_393" vType="4" vaporized=""/>
    <tripinfo id="570" depart="1048.00" departLane="49_0" departPos="8.79" departSpeed="0.00" departDelay="-0.23" arrival="1268.00" arrivalLane="1_0" arrivalPos="195.25" arrivalSpeed="2.03" duration="220.00" routeLength="376.96" waitSteps="0" rerouteNo="0" devices="tripinfo_570" vType="7" vaporized=""/>
    <tripinfo id="959" depart="1137.00" departLane="76_0" departPos="8.19" departSpeed="0.00" departDelay="-0.55" arrival="1276.00" arrivalLane="76_0" arrivalPos="195.25" arrivalSpeed="1.38" duration="139.00" routeLength="187.06" waitSteps="0" rerouteNo="0" devices="tripinfo_959" vType="5" vaporized=""/>
    <tripinfo id="910" depart="1035.00" departLane="57_0" departPos="7.97" departSpeed="0.00" departDelay="-0.34" arrival="1329.00" arrivalLane="11_0" arrivalPos="195.25" arrivalSpeed="1.58" duration="294.00" routeLength="377.78" waitSteps="35" rerouteNo="0" devices="tripinfo_910" vType="4" vaporized=""/>
    <tripinfo id="237" depart="258.00" departLane="10_0" departPos="9.60" departSpeed="0.00" departDelay="-0.98" arrival="1332.00" arrivalLane="18_0" arrivalPos="195.25" arrivalSpeed="0.63" duration="1074.00" routeLength="952.40" waitSteps="273" rerouteNo="0" devices="tripinfo_237" vType="6" vaporized=""/>
    <tripinfo id="848" depart="1248.00" departLane="45_0" departPos="2.81" departSpeed="0.00" departDelay="-0.81" arrival="1336.00" arrivalLane="45_0" arrivalPos="195.25" arrivalSpeed="2.65" duration="88.00" routeLength="192.44" waitSteps="1" rerouteNo="0" devices="tripinfo_848" vType="2" vaporized=""/>
    <tripinfo id="618" depart="1089.00" departLane="36_0" departPos="7.54" departSpeed="0.00" departDelay="-0.51" arrival="1360.00" arrivalLane="38_0" arrivalPos="195.25" arrivalSpeed="2.67" duration="271.00" routeLength="378.21" waitSteps="130" rerouteNo="0" devices="tripinfo_618" vType="8" vaporized=""/>
    <tripinfo id="17" depart="710.00" departLane="52_0" departPos="9.60" departSpeed="0.00" departDelay="-0.70" arrival="1375.00" arrivalLane="41_0" arrivalPos="195.25" arrivalSpeed="2.36" duration="665.00" routeLength="947.65" waitSteps="212" rerouteNo="0" devices="tripinfo_17" vType="6" vaporized=""/>
    <tripinfo id="671" depart="1271.00" departLane="23_0" departPos="7.54" departSpeed="0.00" departDelay="-0.74" arrival="1407.00" arrivalLane="21_0" arrivalPos="195.25" arrivalSpeed="2.98" duration="136.00" routeLength="378.21" waitSteps="0" rerouteNo="0" devices="tripinfo_671" vType="8" vaporized=""/>
    <tripinfo id="744" depart="1327.00" departLane="74_0" departPos="9.60" departSpeed="0.00" departDelay="-0.60" arrival="1411.00" arrivalLane="74_0" arrivalPos="195.25" arrivalSpeed="2.00" duration="84.00" routeLength="185.65" waitSteps="0" rerouteNo="0" devices="tripinfo_744" vType="6" vaporized=""/>
    <tripinfo id="334" depart="1028.00" departLane="67_0" departPos="2.81" departSpeed="0.00" departDelay="-0.57" arrival="1476.00" arrivalLane="11_0" arrivalPos="195.25" arrivalSpeed="2.63" duration="448.00" routeLength="763.94" waitSteps="112" rerouteNo="0" devices="tripinfo_334" vType="2" vaporized=""/>
    <tripinfo id="111" depart="466.00" departLane="44_0" departPos="8.71" departSpeed="0.00" departDelay="-0.75" arrival="1517.00" arrivalLane="43_0" arrivalPos="195.25" arrivalSpeed="0.87" duration="1051.00" routeLength="572.29" waitSteps="198" rerouteNo="0" devices="tripinfo_111" vType="3" vaporized=""/>
    <tripinfo id="429" depart="1358.00" departLane="13_0" departPos="7.95" departSpeed="0.00" departDelay="-0.51" arrival="1546.00" arrivalLane="11_0" arrivalPos="195.25" arrivalSpeed="2.38" duration="188.00" routeLength="377.80" waitSteps="0" rerouteNo="0" devices="tripinfo_429" vType="9" vaporized=""/>
    <tripinfo id="760" depart="228.00" departLane="39_0" departPos="7.00" departSpeed="0.00" departDelay="-0.58" arrival="1591.00" arrivalLane="1_0" arrivalPos="195.25" arrivalSpeed="1.27" duration="1363.00" routeLength="1526.50" waitSteps="371" rerouteNo="0" devices="tripinfo_760" vType="1" vaporized=""/>
    <tripinfo id="287" depart="1521.00" departLane="43_0" departPos="8.79" departSpeed="0.00" departDelay="-0.47" arrival="1614.00" arrivalLane="43_0" arrivalPos="195.25" arrivalSpeed="2.02" duration="93.00" routeLength="186.46" waitSteps="0" rerouteNo="0" devices="tripinfo_287" vType="7" vaporized=""/>
    <tripinfo id="971" depart="968.00" departLane="59_0" departPos="7.97" departSpeed="0.00" departDelay="-0.39" arrival="1615.00" arrivalLane="1_0" arrivalPos="195.25" arrivalSpeed="1.61" duration="647.00" routeLength="758.78" waitSteps="125" rerouteNo="0" devices="tripinfo_971" vType="4" vaporized=""/>
    <tripinfo id="765" depart="1354.00" departLane="49_0" departPos="7.95" departSpeed="0.00" departDelay="-0.36" arrival="1632.00" arrivalLane="1_0" arrivalPos="195.25" arrivalSpeed="2.26" duration="278.00" routeLength="377.80" waitSteps="18" rerouteNo="0" devices="tripinfo_765" vType="9" vaporized=""/>
    <tripinfo id="703" depart="853.00" departLane="16_0" departPos="8.71" departSpeed="0.00" departDelay="-0.22" arrival="1642.00" arrivalLane="18_0" arrivalPos="195.25" arrivalSpeed="0.45" duration="789.00" routeLength="377.04" waitSteps="112" rerouteNo="0" devices="tripinfo_703" vType="3" vaporized=""/>
    <tripinfo id="225" depart="1405.00" departLane="49_0" departPos="8.19" departSpeed="0.00" departDelay="-0.32" arrival="1739.00" arrivalLane="1_0" arrivalPos="195.25" arrivalSpeed="1.35" duration="334.00" routeLength="377.56" waitSteps="44" rerouteNo="0" devices="tripinfo_225" vType="5" vaporized=""/>
    <tripinfo id="806" depart="878.00" departLane="60_0" departPos="7.54" departSpeed="0.00" departDelay="-0.89" arrival="1747.00" arrivalLane="1_0" arrivalPos="195.25" arrivalSpeed="2.10" duration="869.00" routeLength="1140.21" waitSteps="258" rerouteNo="0" devices="tripinfo_806" vType="8" vaporized=""/>
    <tripinfo id="49" depart="1655.00" departLane="33_0" departPos="2.81" departSpeed="0.00" departDelay="-0.00" arrival="1819.00" arrivalLane="31_0" arrivalPos="195.25" arrivalSpeed="2.64" duration="164.00" routeLength="382.94" waitSteps="1" rerouteNo="0" devices="tripinfo_49" vType="2" vaporized=""/>
    <tripinfo id="583" depart="1138.00" departLane="25_0" departPos="8.79" departSpeed="0.00" departDelay="-0.61" arrival="1854.00" arrivalLane="11_0" arrivalPos="195.25" arrivalSpeed="2.02" duration="716.00" routeLength="757.96" waitSteps="198" rerouteNo="0" devices="tripinfo_583" vType="7" vaporized=""/>
    <tripinfo id="212" depart="1410.00" departLane="50_0" departPos="2.81" departSpeed="0.00" departDelay="-0.87" arrival="1958.00" arrivalLane="1_0" arrivalPos="195.25" arrivalSpeed="2.46" duration="548.00" routeLength="763.94" waitSteps="198" rerouteNo="0" devices="tripinfo_212" vType="2" vaporized=""/>
    <tripinfo id="952" depart="1902.00" departLane="8_0" departPos="2.81" departSpeed="0.00" departDelay="-0.69" arrival="1992.00" arrivalLane="8_0" arrivalPos="195.25" arrivalSpeed="2.68" duration="90.00" routeLength="192.44" waitSteps="1" rerouteNo="0" devices="tripinfo_952" vType="2" vaporized=""/>
    <tripinfo id="74" depart="1648.00" departLane="56_0" departPos="8.19" departSpeed="0.00" departDelay="-0.01" arrival="2064.00" arrivalLane="21_0" arrivalPos="195.25" arrivalSpeed="1.32" duration="416.00" routeLength="377.56" waitSteps="132" rerouteNo="0" devices="tripinfo_74" vType="5" vaporized=""/>
    <tripinfo id="363" depart="2017.00" departLane="76_0" departPos="7.54" departSpeed="0.00" departDelay="-0.38" arrival="2083.00" arrivalLane="76_0" arrivalPos="195.25" arrivalSpeed="3.05" duration="66.00" routeLength="187.71" waitSteps="0" rerouteNo="0" devices="tripinfo_363" vType="8" vaporized=""/>
    <tripinfo id="443" depart="1818.00" departLane="18_0" departPos="8.19" departSpeed="0.00" departDelay="-0.71" arrival="2161.00" arrivalLane="18_0" arrivalPos="195.25" arrivalSpeed="0.63" duration="343.00" routeLength="187.06" waitSteps="0" rerouteNo="0" devices="tripinfo_443" vType="5" vaporized=""/>
    <tripinfo id="347" depart="259.00" departLane="19_0" departPos="8.71" departSpeed="0.00" departDelay="-0.85" arrival="2168.00" arrivalLane="43_0" arrivalPos="195.25" arrivalSpeed="0.90" duration="1909.00" routeLength="953.29" waitSteps="348" rerouteNo="0" devices="tripinfo_347" vType="3" vaporized=""/>
    <tripinfo id="467" depart="1565.00" departLane="53_0" departPos="9.60" departSpeed="0.00" departDelay="-0.35" arrival="2177.00" arrivalLane="43_0" arrivalPos="195.25" arrivalSpeed="2.28" duration="612.00" routeLength="566.65" waitSteps="241" rerouteNo="0" devices="tripinfo_467" vType="6" vaporized=""/>
    <tripinfo id="693" depart="1476.00" departLane="54_0" departPos="7.95" departSpeed="0.00" departDelay="-0.63" arrival="2192.00" arrivalLane="43_0" arrivalPos="195.25" arrivalSpeed="2.36" duration="716.00" routeLength="949.30" waitSteps="161" rerouteNo="0" devices="tripinfo_693" vType="9" vaporized=""/>
    <tripinfo id="916" depart="2138.00" departLane="41_0" departPos="7.54" departSpeed="0.00" departDelay="4.45" arrival="2204.00" arrivalLane="41_0" arrivalPos="195.25" arrivalSpeed="2.69" duration="66.00" routeLength="187.71" waitSteps="0" rerouteNo="0" devices="tripinfo_916" vType="8" vaporized=""/>
    <tripinfo id="520" depart="1963.00" departLane="49_0" departPos="7.97" departSpeed="0.00" departDelay="-0.68" arrival="2218.00" arrivalLane="1_0" arrivalPos="195.25" arrivalSpeed="1.50" duration="255.00" routeLength="377.78" waitSteps="0" rerouteNo="0" devices="tripinfo_520" vType="4" vaporized=""/>
    <tripinfo id="740" depart="2017.00" departLane="3_0" departPos="7.95" departSpeed="0.00" departDelay="-0.96" arrival="2237.00" arrivalLane="1_0" arrivalPos="195.25" arrivalSpeed="2.40" duration="220.00" routeLength="377.80" waitSteps="21" rerouteNo="0" devices="tripinfo_740" vType="9" vaporized=""/>
    <tripinfo id="447" depart="1775.00" departLane="46_0" departPos="7.00" departSpeed="0.00" departDelay="-0.20" arrival="2301.00" arrivalLane="45_0" arrivalPos="195.25" arrivalSpeed="1.31" duration="526.00" routeLength="574.00" waitSteps="156" rerouteNo="0" devices="tripinfo_447" vType="1" vaporized=""/>
    <tripinfo id="943" depart="2329.00" departLane="78_0" departPos="7.95" departSpeed="0.00" departDelay="-0.57" arrival="2411.00" arrivalLane="78_0" arrivalPos="195.25" arrivalSpeed="2.44" duration="82.00" routeLength="187.30" waitSteps="0" rerouteNo="0" devices="tripinfo_943" vType="9" vaporized=""/>
    <tripinfo id="846" depart="1481.00" departLane="19_0" departPos="2.81" departSpeed="0.00" departDelay="-0.45" arrival="2443.00" arrivalLane="43_0" arrivalPos="195.25" arrivalSpeed="2.65" duration="962.00" routeLength="959.19" waitSteps="303" rerouteNo="0" devices="tripinfo_846" vType="2" vaporized=""/>
    <tripinfo id="975" depart="2358.00" departLane="72_0" departPos="9.60" departSpeed="0.00" departDelay="-0.01" arrival="2444.00" arrivalLane="72_0" arrivalPos="195.25" arrivalSpeed="2.25" duration="86.00" routeLength="185.65" waitSteps="0" rerouteNo="0" devices="tripinfo_975" vType="6" vaporized=""/>
    <tripinfo id="259" depart="1298.00" departLane="14_0" departPos="8.71" departSpeed="0.00" departDelay="-0.20" arrival="2454.00" arrivalLane="18_0" arrivalPos="195.25" arrivalSpeed="0.58" duration="1156.00" routeLength="567.54" waitSteps="176" rerouteNo="0" devices="tripinfo_259" vType="3" vaporized=""/>
    <tripinfo id="43" depart="2111.00" departLane="55_0" departPos="2.81" departSpeed="0.00" departDelay="-0.27" arrival="2486.00" arrivalLane="45_0" arrivalPos="195.25" arrivalSpeed="2.63" duration="375.00" routeLength="573.44" waitSteps="93" rerouteNo="0" devices="tripinfo_43" vType="2" vaporized=""/>
    <tripinfo id="817" depart="2414.00" departLane="45_0" departPos="2.81" departSpeed="0.00" departDelay="1.79" arrival="2502.00" arrivalLane="45_0" arrivalPos="195.25" arrivalSpeed="2.63" duration="88.00" routeLength="192.44" waitSteps="0" rerouteNo="0" devices="tripinfo_817" vType="2" vaporized=""/>
    <tripinfo id="747" depart="1798.00" departLane="14_0" departPos="2.81" departSpeed="0.00" departDelay="-0.49" arrival="2518.00" arrivalLane="18_0" arrivalPos="195.25" arrivalSpeed="0.62" duration="720.00" routeLength="573.44" waitSteps="183" rerouteNo="0" devices="tripinfo_747" vType="2" vaporized=""/>
    <tripinfo id="651" depart="2582.00" departLane="11_0" departPos="8.79" departSpeed="0.00" departDelay="-0.85" arrival="2675.00" arrivalLane="11_0" arrivalPos="195.25" arrivalSpeed="2.03" duration="93.00" routeLength="186.46" waitSteps="0" rerouteNo="0" devices="tripinfo_651" vType="7" vaporized=""/>
    <tripinfo id="976" depart="709.00" departLane="27_0" departPos="8.71" departSpeed="0.00" departDelay="-0.63" arrival="2752.00" arrivalLane="1_0" arrivalPos="195.25" arrivalSpeed="0.91" duration="2043.00" routeLength="1139.04" waitSteps="311" rerouteNo="0" devices="tripinfo_976" vType="3" vaporized=""/>
    <tripinfo id="955" depart="2754.00" departLane="8_0" departPos="9.60" departSpeed="0.00" departDelay="-0.62" arrival="2839.00" arrivalLane="8_0" arrivalPos="195.25" arrivalSpeed="2.39" duration="85.00" routeLength="185.65" waitSteps="0" rerouteNo="0" devices="tripinfo_955" vType="6" vaporized=""/>
    <tripinfo id="371" depart="1518.00" departLane="50_0" departPos="8.71" departSpeed="0.00" departDelay="-0.69" arrival="2899.00" arrivalLane="1_0" arrivalPos="195.25" arrivalSpeed="0.69" duration="1381.00" routeLength="758.04" waitSteps="227" rerouteNo="0" devices="tripinfo_371" vType="3" vaporized=""/>
    <tripinfo id="666" depart="2810.00" departLane="76_0" departPos="8.79" departSpeed="0.00" departDelay="-0.95" arrival="2903.00" arrivalLane="76_0" arrivalPos="195.25" arrivalSpeed="2.04" duration="93.00" routeLength="186.46" waitSteps="0" rerouteNo="0" devices="tripinfo_666" vType="7" vaporized=""/>
    <tripinfo id="776" depart="1559.00" departLane="60_0" departPos="7.54" departSpeed="0.00" departDelay="-0.43" arrival="2907.00" arrivalLane="1_0" arrivalPos="195.25" arrivalSpeed="2.06" duration="1348.00" routeLength="1140.21" waitSteps="599" rerouteNo="0" devices="tripinfo_776" vType="8" vaporized=""/>
    <tripinfo id="36" depart="1652.00" departLane="60_0" departPos="7.00" departSpeed="0.00" departDelay="-0.01" arrival="2918.00" arrivalLane="1_0" arrivalPos="195.25" arrivalSpeed="1.33" duration="1266.00" routeLength="1140.75" waitSteps="361" rerouteNo="0" devices="tripinfo_36" vType="1" vaporized=""/>
    <tripinfo id="125" depart="2454.00" departLane="15_0" departPos="2.81" departSpeed="0.00" departDelay="-0.35" arrival="2925.00" arrivalLane="1_0" arrivalPos="195.25" arrivalSpeed="2.48" duration="471.00" routeLength="763.94" waitSteps="15" rerouteNo="0" devices="tripinfo_125" vType="2" vaporized=""/>
    <tripinfo id="917" depart="2384.00" departLane="20_0" departPos="2.81" departSpeed="0.00" departDelay="-0.91" arrival="2964.00" arrivalLane="28_0" arrivalPos="195.25" arrivalSpeed="2.62" duration="580.00" routeLength="959.19" waitSteps="125" rerouteNo="0" devices="tripinfo_917" vType="2" vaporized=""/>
    <tripinfo id="145" depart="1953.00" departLane="7_0" departPos="8.71" departSpeed="0.00" departDelay="-0.65" arrival="2967.00" arrivalLane="43_0" arrivalPos="195.25" arrivalSpeed="0.76" duration="1014.00" routeLength="567.54" waitSteps="169" rerouteNo="0" devices="tripinfo_145" vType="3" vaporized=""/>
    <tripinfo id="390" depart="2479.00" departLane="44_0" departPos="7.95" departSpeed="0.00" departDelay="-0.56" arrival="2977.00" arrivalLane="43_0" arrivalPos="195.25" arrivalSpeed="2.44" duration="498.00" routeLength="573.05" waitSteps="152" rerouteNo="0" devices="tripinfo_390" vType="9" vaporized=""/>
    <tripinfo id="719" depart="2625.00" departLane="9_0" departPos="8.79" departSpeed="0.00" departDelay="-0.10" arrival="3070.00" arrivalLane="45_0" arrivalPos="195.25" arrivalSpeed="2.04" duration="445.00" routeLength="572.21" waitSteps="148" rerouteNo="0" devices="tripinfo_719" vType="7" vaporized=""/>
    <tripinfo id="682" depart="3038.00" departLane="28_0" departPos="7.54" departSpeed="0.00" departDelay="-0.45" arrival="3104.00" arrivalLane="28_0" arrivalPos="195.25" arrivalSpeed="2.74" duration="66.00" routeLength="187.71" waitSteps="0" rerouteNo="0" devices="tripinfo_682" vType="8" vaporized=""/>
    <tripinfo id="873" depart="3098.00" departLane="47_0" departPos="2.81" departSpeed="0.00" departDelay="-0.81" arrival="3186.00" arrivalLane="47_0" arrivalPos="195.25" arrivalSpeed="2.63" duration="88.00" routeLength="192.44" waitSteps="1" rerouteNo="0" devices="tripinfo_873" vType="2" vaporized=""/>
    <tripinfo id="216" depart="3086.00" departLane="23_0" departPos="9.60" departSpeed="0.00" departDelay="-0.95" arrival="3328.00" arrivalLane="21_0" arrivalPos="195.25" arrivalSpeed="2.30" duration="242.00" routeLength="376.15" waitSteps="55" rerouteNo="0" devices="tripinfo_216" vType="6" vaporized=""/>
    <tripinfo id="252" depart="2881.00" departLane="18_0" departPos="7.00" departSpeed="0.00" departDelay="-0.43" arrival="3336.00" arrivalLane="18_0" arrivalPos="195.25" arrivalSpeed="0.31" duration="455.00" routeLength="188.25" waitSteps="0" rerouteNo="0" devices="tripinfo_252" vType="1" vaporized=""/>
    <tripinfo id="920" depart="3268.00" departLane="28_0" departPos="2.81" departSpeed="0.00" departDelay="-0.06" arrival="3356.00" arrivalLane="28_0" arrivalPos="195.25" arrivalSpeed="2.64" duration="88.00" routeLength="192.44" waitSteps="0" rerouteNo="0" devices="tripinfo_920" vType="2" vaporized=""/>
    <tripinfo id="250" depart="3279.00" departLane="1_0" departPos="7.95" departSpeed="0.00" departDelay="-0.19" arrival="3360.00" arrivalLane="1_0" arrivalPos="195.25" arrivalSpeed="2.45" duration="81.00" routeLength="187.30" waitSteps="0" rerouteNo="0" devices="tripinfo_250" vType="9" vaporized=""/>
    <tripinfo id="194" depart="2263.00" departLane="39_0" departPos="2.81" departSpeed="0.00" departDelay="-0.00" arrival="3392.00" arrivalLane="1_0" arrivalPos="195.25" arrivalSpeed="2.48" duration="1129.00" routeLength="1530.69" waitSteps="423" rerouteNo="0" devices="tripinfo_194" vType="2" vaporized=""/>
    <tripinfo id="551" depart="2436.00" departLane="30_0" departPos="7.97" departSpeed="0.00" departDelay="0.00" arrival="3426.00" arrivalLane="38_0" arrivalPos="195.25" arrivalSpeed="1.62" duration="990.00" routeLength="954.03" waitSteps="329" rerouteNo="0" devices="tripinfo_551" vType="4" vaporized=""/>
    <tripinfo id="263" depart="3245.00" departLane="6_0" departPos="8.79" departSpeed="0.00" departDelay="-0.97" arrival="3490.00" arrivalLane="8_0" arrivalPos="195.25" arrivalSpeed="2.04" duration="245.00" routeLength="376.96" waitSteps="50" rerouteNo="0" devices="tripinfo_263" vType="7" vaporized=""/>
    <tripinfo id="906" depart="2750.00" departLane="37_0" departPos="2.81" departSpeed="0.00" departDelay="-0.41" arrival="3493.00" arrivalLane="11_0" arrivalPos="195.25" arrivalSpeed="2.66" duration="743.00" routeLength="1144.94" waitSteps="216" rerouteNo="0" devices="tripinfo_906" vType="2" vaporized=""/>
    <tripinfo id="453" depart="3225.00" departLane="74_0" departPos="8.71" departSpeed="0.00" departDelay="-0.41" arrival="3503.00" arrivalLane="74_0" arrivalPos="195.25" arrivalSpeed="0.75" duration="278.00" routeLength="186.54" waitSteps="0" rerouteNo="0" devices="tripinfo_453" vType="3" vaporized=""/>
    <tripinfo id="860" depart="3329.00" departLane="36_0" departPos="7.54" departSpeed="0.00" departDelay="-0.32" arrival="3538.00" arrivalLane="38_0" arrivalPos="195.25" arrivalSpeed="2.88" duration="209.00" routeLength="378.21" waitSteps="69" rerouteNo="0" devices="tripinfo_860" vType="8" vaporized=""/>
    <tripinfo id="410" depart="3496.00" departLane="76_0" departPos="7.95" departSpeed="0.00" departDelay="-0.29" arrival="3577.00" arrivalLane="76_0" arrivalPos="195.25" arrivalSpeed="2.35" duration="81.00" routeLength="187.30" waitSteps="0" rerouteNo="0" devices="tripinfo_410" vType="9" vaporized=""/>
    <tripinfo id="701" depart="3517.00" departLane="1_0" departPos="7.54" departSpeed="0.00" departDelay="-0.15" arrival="3602.00" arrivalLane="1_0" arrivalPos="195.25" arrivalSpeed="2.34" duration="85.00" routeLength="187.71" waitSteps="0" rerouteNo="0" devices="tripinfo_701" vType="8" vaporized=""/>
    <tripinfo id="379" depart="3290.00" departLane="13_0" departPos="7.00" departSpeed="0.00" departDelay="-0.46" arrival="3617.00" arrivalLane="11_0" arrivalPos="195.25" arrivalSpeed="1.48" duration="327.00" routeLength="378.75" waitSteps="83" rerouteNo="0" devices="tripinfo_379" vType="1" vaporized=""/>
    <tripinfo id="664" depart="2816.00" departLane="37_0" departPos="7.54" departSpeed="0.00" departDelay="-0.45" arrival="3643.00" arrivalLane="11_0" arrivalPos="195.25" arrivalSpeed="3.00" duration="827.00" routeLength="1140.21" waitSteps="401" rerouteNo="0" devices="tripinfo_664" vType="8" vaporized=""/>
    <tripinfo id="942" depart="3661.00" departLane="47_0" departPos="7.97" departSpeed="0.00" departDelay="-1.00" arrival="3784.00" arrivalLane="47_0" arrivalPos="195.25" arrivalSpeed="1.61" duration="123.00" routeLength="187.28" waitSteps="0" rerouteNo="0" devices="tripinfo_942" vType="4" vaporized=""/>
    <tripinfo id="628" depart="2804.00" departLane="53_0" departPos="8.71" departSpeed="0.00" departDelay="-0.20" arrival="3787.00" arrivalLane="43_0" arrivalPos="195.25" arrivalSpeed="0.67" duration="983.00" routeLength="567.54" waitSteps="125" rerouteNo="0" devices="tripinfo_628" vType="3" vaporized=""/>
    <tripinfo id="274" depart="2431.00" departLane="10_0" departPos="7.00" departSpeed="0.00" departDelay="-0.95" arrival="3801.00" arrivalLane="18_0" arrivalPos="195.25" arrivalSpeed="0.42" duration="1370.00" routeLength="955.00" waitSteps="392" rerouteNo="0" devices="tripinfo_274" vType="1" vaporized=""/>
    <tripinfo id="988" depart="3410.00" departLane="67_0" departPos="7.00" departSpeed="0.00" departDelay="-0.41" arrival="4034.00" arrivalLane="11_0" arrivalPos="195.25" arrivalSpeed="1.35" duration="624.00" routeLength="759.75" waitSteps="136" rerouteNo="0" devices="tripinfo_988" vType="1" vaporized=""/>
    <tripinfo id="30" depart="3242.00" departLane="12_0" departPos="8.79" departSpeed="0.00" departDelay="-0.98" arrival="4123.00" arrivalLane="18_0" arrivalPos="195.25" arrivalSpeed="0.65" duration="881.00" routeLength="757.96" waitSteps="269" rerouteNo="0" devices="tripinfo_30" vType="7" vaporized=""/>
    <tripinfo id="141" depart="3741.00" departLane="34_0" departPos="7.54" departSpeed="0.00" departDelay="-0.36" arrival="4132.00" arrivalLane="38_0" arrivalPos="195.25" arrivalSpeed="2.70" duration="391.00" routeLength="568.71" waitSteps="180" rerouteNo="0" devices="tripinfo_141" vType="8" vaporized=""/>
    <tripinfo id="168" depart="3535.00" departLane="6_0" departPos="8.71" departSpeed="0.00" departDelay="-0.29" arrival="4161.00" arrivalLane="8_0" arrivalPos="195.25" arrivalSpeed="0.68" duration="626.00" routeLength="377.04" waitSteps="57" rerouteNo="0" devices="tripinfo_168" vType="3" vaporized=""/>
    <tripinfo id="869" depart="3153.00" departLane="70_0" departPos="7.95" departSpeed="0.00" departDelay="-0.55" arrival="4169.00" arrivalLane="1_0" arrivalPos="195.25" arrivalSpeed="2.37" duration="1016.00" routeLength="1520.80" waitSteps="209" rerouteNo="0" devices="tripinfo_869" vType="9" vaporized=""/>
    <tripinfo id="758" depart="3598.00" departLane="4_0" departPos="7.95" departSpeed="0.00" departDelay="-0.84" arrival="4171.00" arrivalLane="8_0" arrivalPos="195.25" arrivalSpeed="2.39" duration="573.00" routeLength="568.30" waitSteps="181" rerouteNo="0" devices="tripinfo_758" vType="9" vaporized=""/>