<?xml version="1.0" encoding="UTF-8"?>

<!-- generated on Thu Oct 31 19:52:32 2013 by SUMO sumo Version 0.17.1
<?xml version="1.0" encoding="UTF-8"?>

<configuration xmlns:xsi="http://www.w3.org/2001/XMLSchema-instance" xsi:noNamespaceSchemaLocation="http://sumo.sf.net/xsd/sumoConfiguration.xsd">

    <input>
        <net-file value="../road_map/test.net.xml"/>
        <route-files value="../road_map/test.rou.xml"/>
        <additional-files value="../road_map/e1.add.xml"/>
    </input>

    <output>
        <tripinfo-output value="../road_map/tripinfo.xml"/>
    </output>

    <time>
        <begin value="0"/>
    </time>

    <report>
        <verbose value="true"/>
        <no-step-log value="true"/>
    </report>

</configuration>
-->

<tripinfos>
    <tripinfo id="726" depart="1.00" departLane="43_0" departPos="7.54" departSpeed="0.00" departDelay="-0.19" arrival="67.00" arrivalLane="43_0" arrivalPos="195.25" arrivalSpeed="2.69" duration="66.00" routeLength="187.71" waitSteps="0" rerouteNo="0" devices="tripinfo_726" vType="8" vaporized=""/>
    <tripinfo id="130" depart="3.00" departLane="78_0" departPos="7.54" departSpeed="0.00" departDelay="-0.17" arrival="70.00" arrivalLane="78_0" arrivalPos="195.25" arrivalSpeed="3.03" duration="67.00" routeLength="187.71" waitSteps="0" rerouteNo="0" devices="tripinfo_130" vType="8" vaporized=""/>
    <tripinfo id="733" depart="79.00" departLane="31_0" departPos="7.00" departSpeed="0.00" departDelay="10.24" arrival="-0.00" arrivalLane="" arrivalPos="-1.00" arrivalSpeed="-1.00" duration="-79.00" routeLength="188.25" waitSteps="0" rerouteNo="0" devices="tripinfo_733" vType="1" vaporized=""/>
    <tripinfo id="916" depart="21.00" departLane="41_0" departPos="7.54" departSpeed="0.00" departDelay="-0.34" arrival="87.00" arrivalLane="41_0" arrivalPos="195.25" arrivalSpeed="2.77" duration="66.00" routeLength="187.71" waitSteps="0" rerouteNo="0" devices="tripinfo_916" vType="8" vaporized=""/>
    <tripinfo id="682" depart="30.00" departLane="28_0" departPos="7.54" departSpeed="0.00" departDelay="-0.38" arrival="96.00" arrivalLane="28_0" arrivalPos="195.25" arrivalSpeed="2.80" duration="66.00" routeLength="187.71" waitSteps="0" rerouteNo="0" devices="tripinfo_682" vType="8" vaporized=""/>
    <tripinfo id="139" depart="8.00" departLane="43_0" departPos="7.95" departSpeed="0.00" departDelay="5.36" arrival="99.00" arrivalLane="43_0" arrivalPos="195.25" arrivalSpeed="2.25" duration="91.00" routeLength="187.30" waitSteps="0" rerouteNo="0" devices="tripinfo_139" vType="9" vaporized=""/>
    <tripinfo id="943" depart="23.00" departLane="78_0" departPos="7.95" departSpeed="0.00" departDelay="-0.29" arrival="105.00" arrivalLane="78_0" arrivalPos="195.25" arrivalSpeed="2.31" duration="82.00" routeLength="187.30" waitSteps="0" rerouteNo="0" devices="tripinfo_943" vType="9" vaporized=""/>
    <tripinfo id="975" depart="23.00" departLane="72_0" departPos="9.60" departSpeed="0.00" departDelay="-0.58" arrival="109.00" arrivalLane="72_0" arrivalPos="195.25" arrivalSpeed="2.29" duration="86.00" routeLength="185.65" waitSteps="0" rerouteNo="0" devices="tripinfo_975" vType="6" vaporized=""/>
    <tripinfo id="250" depart="32.00" departLane="1_0" departPos="7.95" departSpeed="0.00" departDelay="-0.79" arrival="113.00" arrivalLane="1_0" arrivalPos="195.25" arrivalSpeed="2.35" duration="81.00" routeLength="187.30" waitSteps="0" rerouteNo="0" devices="tripinfo_250" vType="9" vaporized=""/>
    <tripinfo id="287" depart="19.00" departLane="43_0" departPos="8.79" departSpeed="0.00" departDelay="3.79" arrival="116.00" arrivalLane="43_0" arrivalPos="195.25" arrivalSpeed="2.02" duration="97.00" routeLength="186.46" waitSteps="0" rerouteNo="0" devices="tripinfo_287" vType="7" vaporized=""/>
    <tripinfo id="651" depart="25.00" departLane="11_0" departPos="8.79" departSpeed="0.00" departDelay="-0.83" arrival="118.00" arrivalLane="11_0" arrivalPos="195.25" arrivalSpeed="2.03" duration="93.00" routeLength="186.46" waitSteps="0" rerouteNo="0" devices="tripinfo_651" vType="7" vaporized=""/>
    <tripinfo id="920" depart="33.00" departLane="28_0" departPos="2.81" departSpeed="0.00" departDelay="0.32" arrival="121.00" arrivalLane="28_0" arrivalPos="195.25" arrivalSpeed="2.67" duration="88.00" routeLength="192.44" waitSteps="0" rerouteNo="0" devices="tripinfo_920" vType="2" vaporized=""/>
    <tripinfo id="65" depart="0.00" departLane="45_0" departPos="7.97" departSpeed="0.00" departDelay="-0.06" arrival="124.00" arrivalLane="45_0" arrivalPos="195.25" arrivalSpeed="1.44" duration="124.00" routeLength="187.28" waitSteps="0" rerouteNo="0" devices="tripinfo_65" vType="4" vaporized=""/>
    <tripinfo id="641" depart="2.00" departLane="8_0" departPos="7.97" departSpeed="0.00" departDelay="-0.92" arrival="126.00" arrivalLane="8_0" arrivalPos="195.25" arrivalSpeed="1.61" duration="124.00" routeLength="187.28" waitSteps="0" rerouteNo="0" devices="tripinfo_641" vType="4" vaporized=""/>
    <tripinfo id="848" depart="12.00" departLane="45_0" departPos="2.81" departSpeed="0.00" departDelay="-0.49" arrival="132.00" arrivalLane="45_0" arrivalPos="195.25" arrivalSpeed="2.22" duration="120.00" routeLength="192.44" waitSteps="0" rerouteNo="0" devices="tripinfo_848" vType="2" vaporized=""/>
    <tripinfo id="701" depart="38.00" departLane="1_0" departPos="7.54" departSpeed="0.00" departDelay="2.83" arrival="132.00" arrivalLane="1_0" arrivalPos="195.25" arrivalSpeed="2.26" duration="94.00" routeLength="187.71" waitSteps="0" rerouteNo="0" devices="tripinfo_701" vType="8" vaporized=""/>
    <tripinfo id="952" depart="19.00" departLane="8_0" departPos="2.81" departSpeed="0.00" departDelay="-0.03" arrival="134.00" arrivalLane="8_0" arrivalPos="195.25" arrivalSpeed="2.18" duration="115.00" routeLength="192.44" waitSteps="1" rerouteNo="0" devices="tripinfo_952" vType="2" vaporized=""/>
    <tripinfo id="817" depart="24.00" departLane="45_0" departPos="2.81" departSpeed="0.00" departDelay="-0.12" arrival="136.00" arrivalLane="45_0" arrivalPos="195.25" arrivalSpeed="2.53" duration="112.00" routeLength="192.44" waitSteps="1" rerouteNo="0" devices="tripinfo_817" vType="2" vaporized=""/>
    <tripinfo id="833" depart="47.00" departLane="43_0" departPos="7.95" departSpeed="0.00" departDelay="-0.53" arrival="140.00" arrivalLane="43_0" arrivalPos="195.25" arrivalSpeed="2.36" duration="93.00" routeLength="187.30" waitSteps="0" rerouteNo="0" devices="tripinfo_833" vType="9" vaporized=""/>
    <tripinfo id="955" depart="40.00" departLane="8_0" departPos="9.60" departSpeed="0.00" departDelay="12.45" arrival="141.00" arrivalLane="8_0" arrivalPos="195.25" arrivalSpeed="2.48" duration="101.00" routeLength="185.65" waitSteps="0" rerouteNo="0" devices="tripinfo_955" vType="6" vaporized=""/>
    <tripinfo id="449" depart="48.00" departLane="11_0" departPos="8.79" departSpeed="0.00" departDelay="-0.55" arrival="141.00" arrivalLane="11_0" arrivalPos="195.25" arrivalSpeed="2.03" duration="93.00" routeLength="186.46" waitSteps="0" rerouteNo="0" devices="tripinfo_449" vType="7" vaporized=""/>
    <tripinfo id="858" depart="50.00" departLane="72_0" departPos="8.79" departSpeed="0.00" departDelay="-0.19" arrival="143.00" arrivalLane="72_0" arrivalPos="195.25" arrivalSpeed="2.02" duration="93.00" routeLength="186.46" waitSteps="0" rerouteNo="0" devices="tripinfo_858" vType="7" vaporized=""/>
    <tripinfo id="476" depart="7.00" departLane="74_0" departPos="8.19" departSpeed="0.00" departDelay="-0.73" arrival="146.00" arrivalLane="74_0" arrivalPos="195.25" arrivalSpeed="1.43" duration="139.00" routeLength="187.06" waitSteps="0" rerouteNo="0" devices="tripinfo_476" vType="5" vaporized=""/>
    <tripinfo id="892" depart="58.00" departLane="11_0" departPos="7.54" departSpeed="0.00" departDelay="-0.79" arrival="148.00" arrivalLane="11_0" arrivalPos="195.25" arrivalSpeed="2.67" duration="90.00" routeLength="187.71" waitSteps="0" rerouteNo="0" devices="tripinfo_892" vType="8" vaporized=""/>
    <tripinfo id="959" depart="11.00" departLane="76_0" departPos="8.19" departSpeed="0.00" departDelay="-0.38" arrival="149.00" arrivalLane="76_0" arrivalPos="195.25" arrivalSpeed="1.34" duration="138.00" routeLength="187.06" waitSteps="0" rerouteNo="0" devices="tripinfo_959" vType="5" vaporized=""/>
    <tripinfo id="233" depart="48.00" departLane="8_0" departPos="8.79" departSpeed="0.00" departDelay="-0.20" arrival="150.00" arrivalLane="8_0" arrivalPos="195.25" arrivalSpeed="2.02" duration="102.00" routeLength="186.46" waitSteps="0" rerouteNo="0" devices="tripinfo_233" vType="7" vaporized=""/>
    <tripinfo id="744" depart="22.00" departLane="74_0" departPos="9.60" departSpeed="0.00" departDelay="8.72" arrival="155.00" arrivalLane="74_0" arrivalPos="195.25" arrivalSpeed="2.24" duration="133.00" routeLength="185.65" waitSteps="0" rerouteNo="0" devices="tripinfo_744" vType="6" vaporized=""/>
    <tripinfo id="363" depart="21.00" departLane="76_0" departPos="7.54" departSpeed="0.00" departDelay="0.83" arrival="155.00" arrivalLane="76_0" arrivalPos="195.25" arrivalSpeed="3.06" duration="134.00" routeLength="187.71" waitSteps="0" rerouteNo="0" devices="tripinfo_363" vType="8" vaporized=""/>
    <tripinfo id="666" depart="32.00" departLane="76_0" departPos="8.79" departSpeed="0.00" departDelay="3.89" arrival="164.00" arrivalLane="76_0" arrivalPos="195.25" arrivalSpeed="2.01" duration="132.00" routeLength="186.46" waitSteps="0" rerouteNo="0" devices="tripinfo_666" vType="7" vaporized=""/>
    <tripinfo id="331" depart="55.00" departLane="21_0" departPos="7.00" departSpeed="0.00" departDelay="-0.90" arrival="174.00" arrivalLane="21_0" arrivalPos="195.25" arrivalSpeed="1.90" duration="119.00" routeLength="188.25" waitSteps="0" rerouteNo="0" devices="tripinfo_331" vType="1" vaporized=""/>
    <tripinfo id="978" depart="95.00" departLane="72_0" departPos="9.60" departSpeed="0.00" departDelay="-0.98" arrival="180.00" arrivalLane="72_0" arrivalPos="195.25" arrivalSpeed="2.01" duration="85.00" routeLength="185.65" waitSteps="0" rerouteNo="0" devices="tripinfo_978" vType="6" vaporized=""/>
    <tripinfo id="442" depart="53.00" departLane="43_0" departPos="7.00" departSpeed="0.00" departDelay="-0.85" arrival="182.00" arrivalLane="43_0" arrivalPos="195.25" arrivalSpeed="1.68" duration="129.00" routeLength="188.25" waitSteps="0" rerouteNo="0" devices="tripinfo_442" vType="1" vaporized=""/>
    <tripinfo id="410" depart="45.00" departLane="76_0" departPos="7.95" departSpeed="0.00" departDelay="10.04" arrival="182.00" arrivalLane="76_0" arrivalPos="195.25" arrivalSpeed="2.38" duration="137.00" routeLength="187.30" waitSteps="0" rerouteNo="0" devices="tripinfo_410" vType="9" vaporized=""/>
    <tripinfo id="411" depart="68.00" departLane="43_0" departPos="8.79" departSpeed="0.00" departDelay="-0.20" arrival="189.00" arrivalLane="43_0" arrivalPos="195.25" arrivalSpeed="2.01" duration="121.00" routeLength="186.46" waitSteps="0" rerouteNo="0" devices="tripinfo_411" vType="7" vaporized=""/>
    <tripinfo id="550" depart="107.00" departLane="8_0" departPos="7.95" departSpeed="0.00" departDelay="-0.75" arrival="189.00" arrivalLane="8_0" arrivalPos="195.25" arrivalSpeed="2.30" duration="82.00" routeLength="187.30" waitSteps="0" rerouteNo="0" devices="tripinfo_550" vType="9" vaporized=""/>
    <tripinfo id="19" depart="55.00" departLane="38_0" departPos="8.19" departSpeed="0.00" departDelay="-0.12" arrival="192.00" arrivalLane="38_0" arrivalPos="195.25" arrivalSpeed="1.28" duration="137.00" routeLength="187.06" waitSteps="0" rerouteNo="0" devices="tripinfo_19" vType="5" vaporized=""/>
    <tripinfo id="803" depart="62.00" departLane="76_0" departPos="8.79" departSpeed="0.00" departDelay="14.22" arrival="195.00" arrivalLane="76_0" arrivalPos="195.25" arrivalSpeed="2.01" duration="133.00" routeLength="186.46" waitSteps="0" rerouteNo="0" devices="tripinfo_803" vType="7" vaporized=""/>
    <tripinfo id="770" depart="78.00" departLane="43_0" departPos="8.79" departSpeed="0.00" departDelay="-0.94" arrival="196.00" arrivalLane="43_0" arrivalPos="195.25" arrivalSpeed="2.01" duration="118.00" routeLength="186.46" waitSteps="0" rerouteNo="0" devices="tripinfo_770" vType="7" vaporized=""/>
    <tripinfo id="171" depart="114.00" departLane="72_0" departPos="9.60" departSpeed="0.00" departDelay="-0.40" arrival="199.00" arrivalLane="72_0" arrivalPos="195.25" arrivalSpeed="2.47" duration="85.00" routeLength="185.65" waitSteps="0" rerouteNo="0" devices="tripinfo_171" vType="6" vaporized=""/>
    <tripinfo id="219" depart="65.00" departLane="65_0" departPos="7.54" departSpeed="0.00" departDelay="-0.48" arrival="201.00" arrivalLane="21_0" arrivalPos="195.25" arrivalSpeed="2.80" duration="136.00" routeLength="378.21" waitSteps="0" rerouteNo="0" devices="tripinfo_219" vType="8" vaporized=""/>
    <tripinfo id="205" depart="64.00" departLane="11_0" departPos="8.19" departSpeed="0.00" departDelay="4.38" arrival="204.00" arrivalLane="11_0" arrivalPos="195.25" arrivalSpeed="1.37" duration="140.00" routeLength="187.06" waitSteps="0" rerouteNo="0" devices="tripinfo_205" vType="5" vaporized=""/>
    <tripinfo id="773" depart="67.00" departLane="38_0" departPos="7.95" departSpeed="0.00" departDelay="3.52" arrival="208.00" arrivalLane="38_0" arrivalPos="195.25" arrivalSpeed="2.24" duration="141.00" routeLength="187.30" waitSteps="1" rerouteNo="0" devices="tripinfo_773" vType="9" vaporized=""/>
    <tripinfo id="440" depart="4.00" departLane="48_0" departPos="9.60" departSpeed="0.00" departDelay="-0.12" arrival="213.00" arrivalLane="11_0" arrivalPos="195.25" arrivalSpeed="2.38" duration="209.00" routeLength="376.15" waitSteps="0" rerouteNo="0" devices="tripinfo_440" vType="6" vaporized=""/>
    <tripinfo id="992" depart="91.00" departLane="43_0" departPos="7.97" departSpeed="0.00" departDelay="18.97" arrival="215.00" arrivalLane="43_0" arrivalPos="195.25" arrivalSpeed="1.48" duration="124.00" routeLength="187.28" waitSteps="0" rerouteNo="0" devices="tripinfo_992" vType="4" vaporized=""/>
    <tripinfo id="585" depart="77.00" departLane="76_0" departPos="8.19" departSpeed="0.00" departDelay="-0.81" arrival="223.00" arrivalLane="76_0" arrivalPos="195.25" arrivalSpeed="1.36" duration="146.00" routeLength="187.06" waitSteps="0" rerouteNo="0" devices="tripinfo_585" vType="5" vaporized=""/>
    <tripinfo id="487" depart="123.00" departLane="72_0" departPos="7.95" departSpeed="0.00" departDelay="4.46" arrival="226.00" arrivalLane="72_0" arrivalPos="195.25" arrivalSpeed="2.38" duration="103.00" routeLength="187.30" waitSteps="0" rerouteNo="0" devices="tripinfo_487" vType="9" vaporized=""/>
    <tripinfo id="618" depart="10.00" departLane="36_0" departPos="7.54" departSpeed="0.00" departDelay="-0.90" arrival="226.00" arrivalLane="38_0" arrivalPos="195.25" arrivalSpeed="3.11" duration="216.00" routeLength="378.21" waitSteps="58" rerouteNo="0" devices="tripinfo_618" vType="8" vaporized=""/>
    <tripinfo id="860" depart="33.00" departLane="36_0" departPos="7.54" departSpeed="0.00" departDelay="-0.29" arrival="232.00" arrivalLane="38_0" arrivalPos="195.25" arrivalSpeed="2.94" duration="199.00" routeLength="378.21" waitSteps="40" rerouteNo="0" devices="tripinfo_860" vType="8" vaporized=""/>
    <tripinfo id="929" depart="93.00" departLane="76_0" departPos="7.97" departSpeed="0.00" departDelay="27.89" arrival="235.00" arrivalLane="76_0" arrivalPos="195.25" arrivalSpeed="1.49" duration="142.00" routeLength="187.28" waitSteps="1" rerouteNo="0" devices="tripinfo_929" vType="4" vaporized=""/>
    <tripinfo id="418" depart="113.00" departLane="28_0" departPos="7.97" departSpeed="0.00" departDelay="-0.46" arrival="236.00" arrivalLane="28_0" arrivalPos="195.25" arrivalSpeed="1.54" duration="123.00" routeLength="187.28" waitSteps="0" rerouteNo="0" devices="tripinfo_418" vType="4" vaporized=""/>
    <tripinfo id="63" depart="42.00" departLane="36_0" departPos="7.54" departSpeed="0.00" departDelay="-0.73" arrival="238.00" arrivalLane="38_0" arrivalPos="195.25" arrivalSpeed="2.99" duration="196.00" routeLength="378.21" waitSteps="36" rerouteNo="0" devices="tripinfo_63" vType="8" vaporized=""/>
    <tripinfo id="162" depart="136.00" departLane="72_0" departPos="8.79" departSpeed="0.00" departDelay="12.21" arrival="240.00" arrivalLane="72_0" arrivalPos="195.25" arrivalSpeed="2.04" duration="104.00" routeLength="186.46" waitSteps="0" rerouteNo="0" devices="tripinfo_162" vType="7" vaporized=""/>
    <tripinfo id="68" depart="130.00" departLane="76_0" departPos="8.79" departSpeed="0.00" departDelay="-0.80" arrival="241.00" arrivalLane="76_0" arrivalPos="195.25" arrivalSpeed="2.04" duration="111.00" routeLength="186.46" waitSteps="0" rerouteNo="0" devices="tripinfo_68" vType="7" vaporized=""/>
    <tripinfo id="602" depart="121.00" departLane="28_0" departPos="2.81" departSpeed="0.00" departDelay="6.35" arrival="244.00" arrivalLane="28_0" arrivalPos="195.25" arrivalSpeed="2.35" duration="123.00" routeLength="192.44" waitSteps="0" rerouteNo="0" devices="tripinfo_602" vType="2" vaporized=""/>
    <tripinfo id="910" depart="10.00" departLane="57_0" departPos="7.97" departSpeed="0.00" departDelay="-0.35" arrival="267.00" arrivalLane="11_0" arrivalPos="195.25" arrivalSpeed="1.57" duration="257.00" routeLength="377.78" waitSteps="1" rerouteNo="0" devices="tripinfo_910" vType="4" vaporized=""/>
    <tripinfo id="769" depart="130.00" departLane="8_0" departPos="8.19" departSpeed="0.00" departDelay="-0.28" arrival="268.00" arrivalLane="8_0" arrivalPos="195.25" arrivalSpeed="1.28" duration="138.00" routeLength="187.06" waitSteps="0" rerouteNo="0" devices="tripinfo_769" vType="5" vaporized=""/>
    <tripinfo id="10" depart="149.00" departLane="72_0" departPos="7.97" departSpeed="0.00" departDelay="19.67" arrival="272.00" arrivalLane="72_0" arrivalPos="195.25" arrivalSpeed="1.46" duration="123.00" routeLength="187.28" waitSteps="0" rerouteNo="0" devices="tripinfo_10" vType="4" vaporized=""/>
    <tripinfo id="71" depart="41.00" departLane="57_0" departPos="9.60" departSpeed="0.00" departDelay="-0.05" arrival="277.00" arrivalLane="11_0" arrivalPos="195.25" arrivalSpeed="2.10" duration="236.00" routeLength="376.15" waitSteps="0" rerouteNo="0" devices="tripinfo_71" vType="6" vaporized=""/>
    <tripinfo id="455" depart="8.00" departLane="47_0" departPos="8.71" departSpeed="0.00" departDelay="-0.71" arrival="281.00" arrivalLane="47_0" arrivalPos="195.25" arrivalSpeed="0.86" duration="273.00" routeLength="186.54" waitSteps="0" rerouteNo="0" devices="tripinfo_455" vType="3" vaporized=""/>
    <tripinfo id="730" depart="192.00" departLane="8_0" departPos="7.95" departSpeed="0.00" departDelay="-0.47" arrival="286.00" arrivalLane="8_0" arrivalPos="195.25" arrivalSpeed="2.34" duration="94.00" routeLength="187.30" waitSteps="0" rerouteNo="0" devices="tripinfo_730" vType="9" vaporized=""/>
    <tripinfo id="866" depart="163.00" departLane="72_0" departPos="7.95" departSpeed="0.00" departDelay="33.02" arrival="289.00" arrivalLane="72_0" arrivalPos="195.25" arrivalSpeed="2.33" duration="126.00" routeLength="187.30" waitSteps="0" rerouteNo="0" devices="tripinfo_866" vType="9" vaporized=""/>
    <tripinfo id="873" depart="30.00" departLane="47_0" departPos="2.81" departSpeed="0.00" departDelay="-0.99" arrival="292.00" arrivalLane="47_0" arrivalPos="195.25" arrivalSpeed="1.67" duration="262.00" routeLength="192.44" waitSteps="1" rerouteNo="0" devices="tripinfo_873" vType="2" vaporized=""/>
    <tripinfo id="23" depart="48.00" departLane="57_0" departPos="7.00" departSpeed="0.00" departDelay="5.62" arrival="292.00" arrivalLane="11_0" arrivalPos="195.25" arrivalSpeed="1.73" duration="244.00" routeLength="378.75" waitSteps="0" rerouteNo="0" devices="tripinfo_23" vType="1" vaporized=""/>
    <tripinfo id="605" depart="48.00" departLane="36_0" departPos="7.97" departSpeed="0.00" departDelay="1.17" arrival="299.00" arrivalLane="38_0" arrivalPos="195.25" arrivalSpeed="1.59" duration="251.00" routeLength="377.78" waitSteps="0" rerouteNo="0" devices="tripinfo_605" vType="4" vaporized=""/>
    <tripinfo id="942" depart="49.00" departLane="47_0" departPos="7.97" departSpeed="0.00" departDelay="12.38" arrival="300.00" arrivalLane="47_0" arrivalPos="195.25" arrivalSpeed="1.65" duration="251.00" routeLength="187.28" waitSteps="0" rerouteNo="0" devices="tripinfo_942" vType="4" vaporized=""/>
    <tripinfo id="899" depart="208.00" departLane="8_0" departPos="8.79" departSpeed="0.00" departDelay="-0.82" arrival="303.00" arrivalLane="8_0" arrivalPos="195.25" arrivalSpeed="2.02" duration="95.00" routeLength="186.46" waitSteps="0" rerouteNo="0" devices="tripinfo_899" vType="7" vaporized=""/>
    <tripinfo id="214" depart="215.00" departLane="76_0" departPos="2.81" departSpeed="0.00" departDelay="-0.77" arrival="303.00" arrivalLane="76_0" arrivalPos="195.25" arrivalSpeed="2.65" duration="88.00" routeLength="192.44" waitSteps="1" rerouteNo="0" devices="tripinfo_214" vType="2" vaporized=""/>
    <tripinfo id="679" depart="58.00" departLane="47_0" departPos="2.81" departSpeed="0.00" departDelay="3.59" arrival="308.00" arrivalLane="47_0" arrivalPos="195.25" arrivalSpeed="2.28" duration="250.00" routeLength="192.44" waitSteps="2" rerouteNo="0" devices="tripinfo_679" vType="2" vaporized=""/>
    <tripinfo id="705" depart="233.00" departLane="76_0" departPos="7.54" departSpeed="0.00" departDelay="3.29" arrival="308.00" arrivalLane="76_0" arrivalPos="195.25" arrivalSpeed="3.11" duration="75.00" routeLength="187.71" waitSteps="0" rerouteNo="0" devices="tripinfo_705" vType="8" vaporized=""/>
    <tripinfo id="453" depart="36.00" departLane="74_0" departPos="8.71" departSpeed="0.00" departDelay="3.75" arrival="309.00" arrivalLane="74_0" arrivalPos="195.25" arrivalSpeed="0.64" duration="273.00" routeLength="186.54" waitSteps="0" rerouteNo="0" devices="tripinfo_453" vType="3" vaporized=""/>
    <tripinfo id="222" depart="39.00" departLane="31_0" departPos="8.71" departSpeed="0.00" departDelay="-0.09" arrival="313.00" arrivalLane="31_0" arrivalPos="195.25" arrivalSpeed="0.70" duration="274.00" routeLength="186.54" waitSteps="0" rerouteNo="0" devices="tripinfo_222" vType="3" vaporized=""/>
    <tripinfo id="184" depart="198.00" departLane="72_0" departPos="9.60" departSpeed="0.00" departDelay="-0.57" arrival="317.00" arrivalLane="72_0" arrivalPos="195.25" arrivalSpeed="2.15" duration="119.00" routeLength="185.65" waitSteps="0" rerouteNo="0" devices="tripinfo_184" vType="6" vaporized=""/>
    <tripinfo id="802" depart="45.00" departLane="45_0" departPos="8.71" departSpeed="0.00" departDelay="40.53" arrival="321.00" arrivalLane="45_0" arrivalPos="195.25" arrivalSpeed="0.63" duration="276.00" routeLength="186.54" waitSteps="0" rerouteNo="0" devices="tripinfo_802" vType="3" vaporized=""/>
    <tripinfo id="683" depart="55.00" departLane="74_0" departPos="2.81" departSpeed="0.00" departDelay="-0.49" arrival="321.00" arrivalLane="74_0" arrivalPos="195.25" arrivalSpeed="1.39" duration="266.00" routeLength="192.44" waitSteps="0" rerouteNo="0" devices="tripinfo_683" vType="2" vaporized=""/>
    <tripinfo id="797" depart="79.00" departLane="47_0" departPos="7.95" departSpeed="0.00" departDelay="25.37" arrival="321.00" arrivalLane="47_0" arrivalPos="195.25" arrivalSpeed="2.21" duration="242.00" routeLength="187.30" waitSteps="0" rerouteNo="0" devices="tripinfo_797" vType="9" vaporized=""/>
    <tripinfo id="761" depart="234.00" departLane="8_0" departPos="2.81" departSpeed="0.00" departDelay="-0.63" arrival="322.00" arrivalLane="8_0" arrivalPos="195.25" arrivalSpeed="2.64" duration="88.00" routeLength="192.44" waitSteps="1" rerouteNo="0" devices="tripinfo_761" vType="2" vaporized=""/>
    <tripinfo id="777" depart="71.00" departLane="74_0" departPos="8.79" departSpeed="0.00" departDelay="7.68" arrival="325.00" arrivalLane="74_0" arrivalPos="195.25" arrivalSpeed="2.05" duration="254.00" routeLength="186.46" waitSteps="0" rerouteNo="0" devices="tripinfo_777" vType="7" vaporized=""/>
    <tripinfo id="304" depart="61.00" departLane="31_0" departPos="7.97" departSpeed="0.00" departDelay="8.50" arrival="326.00" arrivalLane="31_0" arrivalPos="195.25" arrivalSpeed="1.63" duration="265.00" routeLength="187.28" waitSteps="1" rerouteNo="0" devices="tripinfo_304" vType="4" vaporized=""/>
    <tripinfo id="981" depart="251.00" departLane="8_0" departPos="7.54" departSpeed="0.00" departDelay="7.96" arrival="327.00" arrivalLane="8_0" arrivalPos="195.25" arrivalSpeed="2.62" duration="76.00" routeLength="187.71" waitSteps="0" rerouteNo="0" devices="tripinfo_981" vType="8" vaporized=""/>
    <tripinfo id="723" depart="211.00" departLane="72_0" departPos="8.79" departSpeed="0.00" departDelay="4.13" arrival="327.00" arrivalLane="72_0" arrivalPos="195.25" arrivalSpeed="2.05" duration="116.00" routeLength="186.46" waitSteps="0" rerouteNo="0" devices="tripinfo_723" vType="7" vaporized=""/>
    <tripinfo id="260" depart="56.00" departLane="1_0" departPos="8.71" departSpeed="0.00" departDelay="-0.68" arrival="330.00" arrivalLane="1_0" arrivalPos="195.25" arrivalSpeed="0.84" duration="274.00" routeLength="186.54" waitSteps="0" rerouteNo="0" devices="tripinfo_260" vType="3" vaporized=""/>
    <tripinfo id="421" depart="77.00" departLane="45_0" departPos="9.60" departSpeed="0.00" departDelay="-0.01" arrival="331.00" arrivalLane="45_0" arrivalPos="195.25" arrivalSpeed="2.28" duration="254.00" routeLength="185.65" waitSteps="0" rerouteNo="0" devices="tripinfo_421" vType="6" vaporized=""/>
    <tripinfo id="755" depart="120.00" departLane="47_0" departPos="8.79" departSpeed="0.00" departDelay="-0.78" arrival="332.00" arrivalLane="47_0" arrivalPos="195.25" arrivalSpeed="2.03" duration="212.00" routeLength="186.46" waitSteps="0" rerouteNo="0" devices="tripinfo_755" vType="7" vaporized=""/>
    <tripinfo id="570" depart="10.00" departLane="49_0" departPos="8.79" departSpeed="0.00" departDelay="-0.48" arrival="337.00" arrivalLane="1_0" arrivalPos="195.25" arrivalSpeed="2.02" duration="327.00" routeLength="376.96" waitSteps="0" rerouteNo="0" devices="tripinfo_570" vType="7" vaporized=""/>
    <tripinfo id="470" depart="97.00" departLane="31_0" departPos="7.00" departSpeed="0.00" departDelay="-0.67" arrival="337.00" arrivalLane="31_0" arrivalPos="195.25" arrivalSpeed="2.10" duration="240.00" routeLength="188.25" waitSteps="0" rerouteNo="0" devices="tripinfo_470" vType="1" vaporized=""/>
    <tripinfo id="404" depart="80.00" departLane="74_0" departPos="7.00" departSpeed="0.00" departDelay="4.86" arrival="338.00" arrivalLane="74_0" arrivalPos="195.25" arrivalSpeed="1.35" duration="258.00" routeLength="188.25" waitSteps="1" rerouteNo="0" devices="tripinfo_404" vType="1" vaporized=""/>
    <tripinfo id="737" depart="176.00" departLane="47_0" departPos="8.79" departSpeed="0.00" departDelay="-0.12" arrival="339.00" arrivalLane="47_0" arrivalPos="195.25" arrivalSpeed="2.04" duration="163.00" routeLength="186.46" waitSteps="0" rerouteNo="0" devices="tripinfo_737" vType="7" vaporized=""/>
    <tripinfo id="435" depart="231.00" departLane="72_0" departPos="9.60" departSpeed="0.00" departDelay="16.72" arrival="339.00" arrivalLane="72_0" arrivalPos="195.25" arrivalSpeed="2.33" duration="108.00" routeLength="185.65" waitSteps="0" rerouteNo="0" devices="tripinfo_435" vType="6" vaporized=""/>
    <tripinfo id="67" depart="74.00" departLane="41_0" departPos="8.71" departSpeed="0.00" departDelay="-0.47" arrival="343.00" arrivalLane="41_0" arrivalPos="195.25" arrivalSpeed="0.81" duration="269.00" routeLength="186.54" waitSteps="0" rerouteNo="0" devices="tripinfo_67" vType="3" vaporized=""/>
    <tripinfo id="422" depart="99.00" departLane="74_0" departPos="8.79" departSpeed="0.00" departDelay="7.53" arrival="344.00" arrivalLane="74_0" arrivalPos="195.25" arrivalSpeed="2.01" duration="245.00" routeLength="186.46" waitSteps="0" rerouteNo="0" devices="tripinfo_422" vType="7" vaporized=""/>
    <tripinfo id="441" depart="109.00" departLane="31_0" departPos="8.79" departSpeed="0.00" departDelay="-0.72" arrival="344.00" arrivalLane="31_0" arrivalPos="195.25" arrivalSpeed="2.04" duration="235.00" routeLength="186.46" waitSteps="0" rerouteNo="0" devices="tripinfo_441" vType="7" vaporized=""/>
    <tripinfo id="635" depart="242.00" departLane="72_0" departPos="7.54" departSpeed="0.00" departDelay="12.99" arrival="346.00" arrivalLane="72_0" arrivalPos="195.25" arrivalSpeed="2.73" duration="104.00" routeLength="187.71" waitSteps="0" rerouteNo="0" devices="tripinfo_635" vType="8" vaporized=""/>
    <tripinfo id="225" depart="17.00" departLane="49_0" departPos="8.19" departSpeed="0.00" departDelay="2.95" arrival="351.00" arrivalLane="1_0" arrivalPos="195.25" arrivalSpeed="1.26" duration="334.00" routeLength="377.56" waitSteps="0" rerouteNo="0" devices="tripinfo_225" vType="5" vaporized=""/>
    <tripinfo id="566" depart="4.00" departLane="51_0" departPos="9.60" departSpeed="0.00" departDelay="-0.07" arrival="352.00" arrivalLane="41_0" arrivalPos="195.25" arrivalSpeed="2.44" duration="348.00" routeLength="566.65" waitSteps="39" rerouteNo="0" devices="tripinfo_566" vType="6" vaporized=""/>
    <tripinfo id="862" depart="229.00" departLane="74_0" departPos="2.81" departSpeed="0.00" departDelay="128.95" arrival="354.00" arrivalLane="74_0" arrivalPos="195.25" arrivalSpeed="2.66" duration="125.00" routeLength="192.44" waitSteps="3" rerouteNo="0" devices="tripinfo_862" vType="2" vaporized=""/>
    <tripinfo id="443" depart="18.00" departLane="18_0" departPos="8.19" departSpeed="0.00" departDelay="-0.19" arrival="355.00" arrivalLane="18_0" arrivalPos="195.25" arrivalSpeed="0.47" duration="337.00" routeLength="187.06" waitSteps="0" rerouteNo="0" devices="tripinfo_443" vType="5" vaporized=""/>