<?xml version="1.0" encoding="UTF-8"?>

<!-- generated on Fri Nov  1 13:01:53 2013 by SUMO sumo Version 0.17.1
<?xml version="1.0" encoding="UTF-8"?>

<configuration xmlns:xsi="http://www.w3.org/2001/XMLSchema-instance" xsi:noNamespaceSchemaLocation="http://sumo.sf.net/xsd/sumoConfiguration.xsd">

    <input>
        <net-file value="road_map/test.net.xml"/>
        <route-files value="road_map/test.rou.xml"/>
        <additional-files value="road_map/e1.add.xml"/>
    </input>

    <output>
        <tripinfo-output value="road_map/tripinfo.xml"/>
    </output>

    <time>
        <begin value="0"/>
    </time>

    <report>
        <verbose value="true"/>
        <no-step-log value="true"/>
    </report>

</configuration>
-->

<tripinfos>
    <tripinfo id="898" depart="15.00" departLane="31_0" departPos="4.17" departSpeed="0.00" departDelay="-0.99" arrival="66.00" arrivalLane="31_0" arrivalPos="195.25" arrivalSpeed="4.73" duration="51.00" routeLength="191.08" waitSteps="0" rerouteNo="0" devices="tripinfo_898" vType="8" vaporized=""/>
    <tripinfo id="41" depart="35.00" departLane="74_0" departPos="4.17" departSpeed="0.00" departDelay="-0.43" arrival="87.00" arrivalLane="74_0" arrivalPos="195.25" arrivalSpeed="4.80" duration="52.00" routeLength="191.08" waitSteps="0" rerouteNo="0" devices="tripinfo_41" vType="8" vaporized=""/>
    <tripinfo id="150" depart="91.00" departLane="74_0" departPos="4.17" departSpeed="0.00" departDelay="5.93" arrival="-0.00" arrivalLane="" arrivalPos="-1.00" arrivalSpeed="-1.00" duration="-91.00" routeLength="191.08" waitSteps="0" rerouteNo="0" devices="tripinfo_150" vType="8" vaporized=""/>
    <tripinfo id="461" depart="8.00" departLane="73_0" departPos="1.20" departSpeed="0.00" departDelay="-0.64" arrival="113.00" arrivalLane="31_0" arrivalPos="195.25" arrivalSpeed="4.08" duration="105.00" routeLength="389.30" waitSteps="0" rerouteNo="0" devices="tripinfo_461" vType="2" vaporized=""/>
    <tripinfo id="412" depart="24.00" departLane="72_0" departPos="5.66" departSpeed="0.00" departDelay="-0.38" arrival="116.00" arrivalLane="72_0" arrivalPos="195.25" arrivalSpeed="2.08" duration="92.00" routeLength="189.59" waitSteps="0" rerouteNo="0" devices="tripinfo_412" vType="7" vaporized=""/>
    <tripinfo id="623" depart="10.00" departLane="47_0" departPos="2.43" departSpeed="0.00" departDelay="-0.01" arrival="134.00" arrivalLane="47_0" arrivalPos="195.25" arrivalSpeed="1.62" duration="124.00" routeLength="192.82" waitSteps="0" rerouteNo="0" devices="tripinfo_623" vType="6" vaporized=""/>
    <tripinfo id="389" depart="18.00" departLane="8_0" departPos="2.43" departSpeed="0.00" departDelay="-0.34" arrival="142.00" arrivalLane="8_0" arrivalPos="195.25" arrivalSpeed="1.84" duration="124.00" routeLength="192.82" waitSteps="0" rerouteNo="0" devices="tripinfo_389" vType="6" vaporized=""/>
    <tripinfo id="241" depart="22.00" departLane="1_0" departPos="2.43" departSpeed="0.00" departDelay="-0.28" arrival="143.00" arrivalLane="1_0" arrivalPos="195.25" arrivalSpeed="1.39" duration="121.00" routeLength="192.82" waitSteps="0" rerouteNo="0" devices="tripinfo_241" vType="6" vaporized=""/>
    <tripinfo id="924" depart="17.00" departLane="49_0" departPos="1.20" departSpeed="0.00" departDelay="-0.85" arrival="149.00" arrivalLane="1_0" arrivalPos="195.25" arrivalSpeed="3.32" duration="132.00" routeLength="384.55" waitSteps="0" rerouteNo="0" devices="tripinfo_924" vType="2" vaporized=""/>
    <tripinfo id="370" depart="57.00" departLane="72_0" departPos="5.66" departSpeed="0.00" departDelay="-0.71" arrival="149.00" arrivalLane="72_0" arrivalPos="195.25" arrivalSpeed="2.11" duration="92.00" routeLength="189.59" waitSteps="0" rerouteNo="0" devices="tripinfo_370" vType="7" vaporized=""/>
    <tripinfo id="169" depart="69.00" departLane="45_0" departPos="6.26" departSpeed="0.00" departDelay="-0.92" arrival="166.00" arrivalLane="45_0" arrivalPos="195.25" arrivalSpeed="2.10" duration="97.00" routeLength="188.99" waitSteps="0" rerouteNo="0" devices="tripinfo_169" vType="4" vaporized=""/>
    <tripinfo id="882" depart="44.00" departLane="38_0" departPos="2.43" departSpeed="0.00" departDelay="-0.06" arrival="170.00" arrivalLane="38_0" arrivalPos="195.25" arrivalSpeed="1.75" duration="126.00" routeLength="192.82" waitSteps="0" rerouteNo="0" devices="tripinfo_882" vType="6" vaporized=""/>
    <tripinfo id="785" depart="105.00" departLane="45_0" departPos="1.64" departSpeed="0.00" departDelay="-0.60" arrival="171.00" arrivalLane="45_0" arrivalPos="195.25" arrivalSpeed="4.74" duration="66.00" routeLength="193.61" waitSteps="0" rerouteNo="0" devices="tripinfo_785" vType="5" vaporized=""/>
    <tripinfo id="301" depart="75.00" departLane="43_0" departPos="6.26" departSpeed="0.00" departDelay="-0.54" arrival="172.00" arrivalLane="43_0" arrivalPos="195.25" arrivalSpeed="2.08" duration="97.00" routeLength="188.99" waitSteps="0" rerouteNo="0" devices="tripinfo_301" vType="4" vaporized=""/>
    <tripinfo id="916" depart="115.00" departLane="45_0" departPos="1.20" departSpeed="0.00" departDelay="-0.56" arrival="176.00" arrivalLane="45_0" arrivalPos="195.25" arrivalSpeed="4.38" duration="61.00" routeLength="194.05" waitSteps="0" rerouteNo="0" devices="tripinfo_916" vType="2" vaporized=""/>
    <tripinfo id="56" depart="134.00" departLane="45_0" departPos="1.64" departSpeed="0.00" departDelay="-0.89" arrival="182.00" arrivalLane="45_0" arrivalPos="195.25" arrivalSpeed="4.53" duration="48.00" routeLength="193.61" waitSteps="0" rerouteNo="0" devices="tripinfo_56" vType="5" vaporized=""/>
    <tripinfo id="26" depart="182.00" departLane="41_0" departPos="2.43" departSpeed="0.00" departDelay="2.51" arrival="-0.00" arrivalLane="" arrivalPos="-1.00" arrivalSpeed="-1.00" duration="-182.00" routeLength="192.82" waitSteps="0" rerouteNo="0" devices="tripinfo_26" vType="6" vaporized=""/>
    <tripinfo id="88" depart="141.00" departLane="45_0" departPos="1.20" departSpeed="0.00" departDelay="-0.68" arrival="194.00" arrivalLane="45_0" arrivalPos="195.25" arrivalSpeed="4.33" duration="53.00" routeLength="194.05" waitSteps="0" rerouteNo="0" devices="tripinfo_88" vType="2" vaporized=""/>
    <tripinfo id="544" depart="196.00" departLane="21_0" departPos="5.66" departSpeed="0.00" departDelay="25.63" arrival="-0.00" arrivalLane="" arrivalPos="-1.00" arrivalSpeed="-1.00" duration="-196.00" routeLength="189.59" waitSteps="0" rerouteNo="0" devices="tripinfo_544" vType="7" vaporized=""/>
    <tripinfo id="188" depart="0.00" departLane="65_0" departPos="6.64" departSpeed="0.00" departDelay="-0.57" arrival="204.00" arrivalLane="21_0" arrivalPos="195.25" arrivalSpeed="2.09" duration="204.00" routeLength="379.11" waitSteps="0" rerouteNo="0" devices="tripinfo_188" vType="9" vaporized=""/>
    <tripinfo id="483" depart="203.00" departLane="43_0" departPos="1.64" departSpeed="0.00" departDelay="11.31" arrival="-0.00" arrivalLane="" arrivalPos="-1.00" arrivalSpeed="-1.00" duration="-203.00" routeLength="193.61" waitSteps="0" rerouteNo="0" devices="tripinfo_483" vType="5" vaporized=""/>
    <tripinfo id="72" depart="199.00" departLane="41_0" departPos="6.13" departSpeed="0.00" departDelay="137.14" arrival="-0.00" arrivalLane="" arrivalPos="-1.00" arrivalSpeed="-1.00" duration="-199.00" routeLength="189.12" waitSteps="0" rerouteNo="0" devices="tripinfo_72" vType="1" vaporized=""/>
    <tripinfo id="297" depart="108.00" departLane="1_0" departPos="6.64" departSpeed="0.00" departDelay="-0.21" arrival="208.00" arrivalLane="1_0" arrivalPos="195.25" arrivalSpeed="2.05" duration="100.00" routeLength="188.61" waitSteps="0" rerouteNo="0" devices="tripinfo_297" vType="9" vaporized=""/>
    <tripinfo id="456" depart="159.00" departLane="45_0" departPos="1.64" departSpeed="0.00" departDelay="-0.96" arrival="209.00" arrivalLane="45_0" arrivalPos="195.25" arrivalSpeed="4.12" duration="50.00" routeLength="193.61" waitSteps="0" rerouteNo="0" devices="tripinfo_456" vType="5" vaporized=""/>
    <tripinfo id="171" depart="210.00" departLane="41_0" departPos="5.66" departSpeed="0.00" departDelay="34.10" arrival="-0.00" arrivalLane="" arrivalPos="-1.00" arrivalSpeed="-1.00" duration="-210.00" routeLength="189.59" waitSteps="0" rerouteNo="0" devices="tripinfo_171" vType="7" vaporized=""/>
    <tripinfo id="253" depart="119.00" departLane="78_0" departPos="6.26" departSpeed="0.00" departDelay="-0.93" arrival="216.00" arrivalLane="78_0" arrivalPos="195.25" arrivalSpeed="2.09" duration="97.00" routeLength="188.99" waitSteps="0" rerouteNo="0" devices="tripinfo_253" vType="4" vaporized=""/>
    <tripinfo id="592" depart="214.00" departLane="43_0" departPos="6.26" departSpeed="0.00" departDelay="25.66" arrival="-0.00" arrivalLane="" arrivalPos="-1.00" arrivalSpeed="-1.00" duration="-214.00" routeLength="188.99" waitSteps="0" rerouteNo="0" devices="tripinfo_592" vType="4" vaporized=""/>
    <tripinfo id="183" depart="110.00" departLane="31_0" departPos="2.43" departSpeed="0.00" departDelay="-0.87" arrival="236.00" arrivalLane="31_0" arrivalPos="195.25" arrivalSpeed="1.48" duration="126.00" routeLength="192.82" waitSteps="0" rerouteNo="0" devices="tripinfo_183" vType="6" vaporized=""/>
    <tripinfo id="811" depart="114.00" departLane="1_0" departPos="2.43" departSpeed="0.00" departDelay="5.01" arrival="237.00" arrivalLane="1_0" arrivalPos="195.25" arrivalSpeed="1.49" duration="123.00" routeLength="192.82" waitSteps="0" rerouteNo="0" devices="tripinfo_811" vType="6" vaporized=""/>
    <tripinfo id="446" depart="25.00" departLane="49_0" departPos="6.26" departSpeed="0.00" departDelay="-0.00" arrival="241.00" arrivalLane="1_0" arrivalPos="195.25" arrivalSpeed="2.10" duration="216.00" routeLength="379.49" waitSteps="0" rerouteNo="0" devices="tripinfo_446" vType="4" vaporized=""/>
    <tripinfo id="479" depart="118.00" departLane="31_0" departPos="1.20" departSpeed="0.00" departDelay="3.05" arrival="241.00" arrivalLane="31_0" arrivalPos="195.25" arrivalSpeed="3.21" duration="123.00" routeLength="194.05" waitSteps="0" rerouteNo="0" devices="tripinfo_479" vType="2" vaporized=""/>
    <tripinfo id="537" depart="36.00" departLane="49_0" departPos="1.20" departSpeed="0.00" departDelay="9.00" arrival="247.00" arrivalLane="1_0" arrivalPos="195.25" arrivalSpeed="4.20" duration="211.00" routeLength="384.55" waitSteps="0" rerouteNo="0" devices="tripinfo_537" vType="2" vaporized=""/>
    <tripinfo id="624" depart="28.00" departLane="73_0" departPos="5.66" departSpeed="0.00" departDelay="-0.36" arrival="249.00" arrivalLane="31_0" arrivalPos="195.25" arrivalSpeed="2.11" duration="221.00" routeLength="384.84" waitSteps="0" rerouteNo="0" devices="tripinfo_624" vType="7" vaporized=""/>
    <tripinfo id="522" depart="138.00" departLane="1_0" departPos="6.64" departSpeed="0.00" departDelay="9.61" arrival="253.00" arrivalLane="1_0" arrivalPos="195.25" arrivalSpeed="2.13" duration="115.00" routeLength="188.61" waitSteps="0" rerouteNo="0" devices="tripinfo_522" vType="9" vaporized=""/>
    <tripinfo id="548" depart="46.00" departLane="73_0" departPos="4.17" departSpeed="0.00" departDelay="-0.43" arrival="255.00" arrivalLane="31_0" arrivalPos="195.25" arrivalSpeed="3.85" duration="209.00" routeLength="386.33" waitSteps="0" rerouteNo="0" devices="tripinfo_548" vType="8" vaporized=""/>
    <tripinfo id="707" depart="78.00" departLane="73_0" departPos="1.64" departSpeed="0.00" departDelay="-0.76" arrival="259.00" arrivalLane="31_0" arrivalPos="195.25" arrivalSpeed="4.38" duration="181.00" routeLength="388.86" waitSteps="0" rerouteNo="0" devices="tripinfo_707" vType="5" vaporized=""/>
    <tripinfo id="217" depart="43.00" departLane="49_0" departPos="6.26" departSpeed="0.00" departDelay="13.71" arrival="260.00" arrivalLane="1_0" arrivalPos="195.25" arrivalSpeed="2.08" duration="217.00" routeLength="379.49" waitSteps="0" rerouteNo="0" devices="tripinfo_217" vType="4" vaporized=""/>
    <tripinfo id="324" depart="153.00" departLane="31_0" departPos="6.64" departSpeed="0.00" departDelay="28.74" arrival="272.00" arrivalLane="31_0" arrivalPos="195.25" arrivalSpeed="1.65" duration="119.00" routeLength="188.61" waitSteps="0" rerouteNo="0" devices="tripinfo_324" vType="9" vaporized=""/>
    <tripinfo id="796" depart="174.00" departLane="1_0" departPos="6.64" departSpeed="0.00" departDelay="-0.58" arrival="273.00" arrivalLane="1_0" arrivalPos="195.25" arrivalSpeed="1.85" duration="99.00" routeLength="188.61" waitSteps="0" rerouteNo="0" devices="tripinfo_796" vType="9" vaporized=""/>
    <tripinfo id="327" depart="184.00" departLane="1_0" departPos="1.20" departSpeed="0.00" departDelay="-0.88" arrival="279.00" arrivalLane="1_0" arrivalPos="195.25" arrivalSpeed="3.76" duration="95.00" routeLength="194.05" waitSteps="0" rerouteNo="0" devices="tripinfo_327" vType="2" vaporized=""/>
    <tripinfo id="754" depart="163.00" departLane="31_0" departPos="4.17" departSpeed="0.00" departDelay="12.78" arrival="279.00" arrivalLane="31_0" arrivalPos="195.25" arrivalSpeed="3.30" duration="116.00" routeLength="191.08" waitSteps="0" rerouteNo="0" devices="tripinfo_754" vType="8" vaporized=""/>
    <tripinfo id="781" depart="9.00" departLane="33_0" departPos="6.26" departSpeed="0.00" departDelay="-0.96" arrival="286.00" arrivalLane="31_0" arrivalPos="195.25" arrivalSpeed="2.11" duration="277.00" routeLength="379.49" waitSteps="77" rerouteNo="0" devices="tripinfo_781" vType="4" vaporized=""/>
    <tripinfo id="73" depart="56.00" departLane="33_0" departPos="4.17" departSpeed="0.00" departDelay="-0.53" arrival="292.00" arrivalLane="31_0" arrivalPos="195.25" arrivalSpeed="3.73" duration="236.00" routeLength="381.58" waitSteps="76" rerouteNo="0" devices="tripinfo_73" vType="8" vaporized=""/>
    <tripinfo id="65" depart="207.00" departLane="31_0" departPos="1.20" departSpeed="0.00" departDelay="14.58" arrival="296.00" arrivalLane="31_0" arrivalPos="195.25" arrivalSpeed="4.12" duration="89.00" routeLength="194.05" waitSteps="0" rerouteNo="0" devices="tripinfo_65" vType="2" vaporized=""/>
    <tripinfo id="200" depart="209.00" departLane="1_0" departPos="5.66" departSpeed="0.00" departDelay="-0.68" arrival="301.00" arrivalLane="1_0" arrivalPos="195.25" arrivalSpeed="2.07" duration="92.00" routeLength="189.59" waitSteps="0" rerouteNo="0" devices="tripinfo_200" vType="7" vaporized=""/>
    <tripinfo id="520" depart="202.00" departLane="45_0" departPos="6.64" departSpeed="0.00" departDelay="-0.95" arrival="303.00" arrivalLane="45_0" arrivalPos="195.25" arrivalSpeed="2.27" duration="101.00" routeLength="188.61" waitSteps="0" rerouteNo="0" devices="tripinfo_520" vType="9" vaporized=""/>
    <tripinfo id="178" depart="277.00" departLane="1_0" departPos="4.17" departSpeed="0.00" departDelay="-0.55" arrival="328.00" arrivalLane="1_0" arrivalPos="195.25" arrivalSpeed="4.87" duration="51.00" routeLength="191.08" waitSteps="0" rerouteNo="0" devices="tripinfo_178" vType="8" vaporized=""/>
    <tripinfo id="57" depart="347.00" departLane="11_0" departPos="2.43" departSpeed="0.00" departDelay="7.39" arrival="-0.00" arrivalLane="" arrivalPos="-1.00" arrivalSpeed="-1.00" duration="-347.00" routeLength="192.82" waitSteps="0" rerouteNo="0" devices="tripinfo_57" vType="6" vaporized=""/>
    <tripinfo id="743" depart="349.00" departLane="57_0" departPos="6.26" departSpeed="0.00" departDelay="28.11" arrival="378.00" arrivalLane="11_0" arrivalPos="195.25" arrivalSpeed="2.09" duration="29.00" routeLength="379.49" waitSteps="0" rerouteNo="0" devices="tripinfo_743" vType="4" vaporized=""/>
    <tripinfo id="576" depart="286.00" departLane="1_0" departPos="6.26" departSpeed="0.00" departDelay="4.09" arrival="383.00" arrivalLane="1_0" arrivalPos="195.25" arrivalSpeed="2.10" duration="97.00" routeLength="188.99" waitSteps="0" rerouteNo="0" devices="tripinfo_576" vType="4" vaporized=""/>
    <tripinfo id="109" depart="340.00" departLane="57_0" departPos="2.43" departSpeed="0.00" departDelay="17.08" arrival="395.00" arrivalLane="11_0" arrivalPos="195.25" arrivalSpeed="1.70" duration="55.00" routeLength="383.32" waitSteps="0" rerouteNo="0" devices="tripinfo_109" vType="6" vaporized=""/>
    <tripinfo id="504" depart="3.00" departLane="40_0" departPos="5.66" departSpeed="0.00" departDelay="-0.91" arrival="419.00" arrivalLane="1_0" arrivalPos="195.25" arrivalSpeed="2.10" duration="416.00" routeLength="384.84" waitSteps="226" rerouteNo="0" devices="tripinfo_504" vType="7" vaporized=""/>
    <tripinfo id="888" depart="19.00" departLane="40_0" departPos="5.66" departSpeed="0.00" departDelay="-0.44" arrival="428.00" arrivalLane="1_0" arrivalPos="195.25" arrivalSpeed="2.08" duration="409.00" routeLength="384.84" waitSteps="218" rerouteNo="0" devices="tripinfo_888" vType="7" vaporized=""/>
    <tripinfo id="783" depart="108.00" departLane="49_0" departPos="5.66" departSpeed="0.00" departDelay="-0.86" arrival="436.00" arrivalLane="1_0" arrivalPos="195.25" arrivalSpeed="2.09" duration="328.00" routeLength="380.09" waitSteps="134" rerouteNo="0" devices="tripinfo_783" vType="7" vaporized=""/>
    <tripinfo id="939" depart="441.00" departLane="41_0" departPos="4.17" departSpeed="0.00" departDelay="159.89" arrival="-0.00" arrivalLane="" arrivalPos="-1.00" arrivalSpeed="-1.00" duration="-441.00" routeLength="191.08" waitSteps="0" rerouteNo="0" devices="tripinfo_939" vType="8" vaporized=""/>
    <tripinfo id="162" depart="25.00" departLane="48_0" departPos="6.26" departSpeed="0.00" departDelay="-0.90" arrival="446.00" arrivalLane="11_0" arrivalPos="195.25" arrivalSpeed="2.09" duration="421.00" routeLength="379.49" waitSteps="302" rerouteNo="0" devices="tripinfo_162" vType="4" vaporized=""/>
    <tripinfo id="825" depart="145.00" departLane="49_0" departPos="6.26" departSpeed="0.00" departDelay="-0.36" arrival="446.00" arrivalLane="1_0" arrivalPos="195.25" arrivalSpeed="2.08" duration="301.00" routeLength="379.49" waitSteps="93" rerouteNo="0" devices="tripinfo_825" vType="4" vaporized=""/>
    <tripinfo id="599" depart="154.00" departLane="49_0" departPos="2.43" departSpeed="0.00" departDelay="5.94" arrival="485.00" arrivalLane="1_0" arrivalPos="195.25" arrivalSpeed="1.45" duration="331.00" routeLength="383.32" waitSteps="66" rerouteNo="0" devices="tripinfo_599" vType="6" vaporized=""/>
    <tripinfo id="929" depart="498.00" departLane="28_0" departPos="4.17" departSpeed="0.00" departDelay="239.41" arrival="-0.00" arrivalLane="" arrivalPos="-1.00" arrivalSpeed="-1.00" duration="-498.00" routeLength="191.08" waitSteps="0" rerouteNo="0" devices="tripinfo_929" vType="8" vaporized=""/>
    <tripinfo id="889" depart="546.00" departLane="56_0" departPos="6.64" departSpeed="0.00" departDelay="322.13" arrival="563.00" arrivalLane="21_0" arrivalPos="195.25" arrivalSpeed="2.04" duration="17.00" routeLength="379.11" waitSteps="0" rerouteNo="0" devices="tripinfo_889" vType="9" vaporized=""/>
    <tripinfo id="0" depart="1.00" departLane="18_0" departPos="6.13" departSpeed="0.00" departDelay="-0.33" arrival="565.00" arrivalLane="18_0" arrivalPos="195.25" arrivalSpeed="0.38" duration="564.00" routeLength="189.12" waitSteps="0" rerouteNo="0" devices="tripinfo_0" vType="1" vaporized=""/>
    <tripinfo id="228" depart="561.00" departLane="13_0" departPos="5.66" departSpeed="0.00" departDelay="226.57" arrival="571.00" arrivalLane="11_0" arrivalPos="195.25" arrivalSpeed="2.05" duration="10.00" routeLength="380.09" waitSteps="2" rerouteNo="0" devices="tripinfo_228" vType="7" vaporized=""/>
    <tripinfo id="237" depart="41.00" departLane="18_0" departPos="4.17" departSpeed="0.00" departDelay="-0.65" arrival="575.00" arrivalLane="18_0" arrivalPos="195.25" arrivalSpeed="3.58" duration="534.00" routeLength="191.08" waitSteps="4" rerouteNo="0" devices="tripinfo_237" vType="8" vaporized=""/>
    <tripinfo id="894" depart="41.00" departLane="36_0" departPos="2.43" departSpeed="0.00" departDelay="-0.12" arrival="-0.00" arrivalLane="" arrivalPos="-1.00" arrivalSpeed="-1.00" duration="-41.00" routeLength="383.32" waitSteps="96" rerouteNo="0" devices="tripinfo_894" vType="6" vaporized=""/>
    <tripinfo id="510" depart="70.00" departLane="18_0" departPos="2.43" departSpeed="0.00" departDelay="3.87" arrival="585.00" arrivalLane="18_0" arrivalPos="195.25" arrivalSpeed="1.76" duration="515.00" routeLength="192.82" waitSteps="6" rerouteNo="0" devices="tripinfo_510" vType="6" vaporized=""/>
    <tripinfo id="355" depart="109.00" departLane="18_0" departPos="2.43" departSpeed="0.00" departDelay="-0.73" arrival="591.00" arrivalLane="18_0" arrivalPos="195.25" arrivalSpeed="1.50" duration="482.00" routeLength="192.82" waitSteps="16" rerouteNo="0" devices="tripinfo_355" vType="6" vaporized=""/>
    <tripinfo id="643" depart="10.00" departLane="16_0" departPos="6.64" departSpeed="0.00" departDelay="-0.64" arrival="596.00" arrivalLane="18_0" arrivalPos="195.25" arrivalSpeed="2.25" duration="586.00" routeLength="379.11" waitSteps="144" rerouteNo="0" devices="tripinfo_643" vType="9" vaporized=""/>
    <tripinfo id="836" depart="90.00" departLane="16_0" departPos="2.43" departSpeed="0.00" departDelay="-0.90" arrival="605.00" arrivalLane="18_0" arrivalPos="195.25" arrivalSpeed="1.52" duration="515.00" routeLength="383.32" waitSteps="31" rerouteNo="0" devices="tripinfo_836" vType="6" vaporized=""/>
    <tripinfo id="359" depart="1.00" departLane="28_0" departPos="5.19" departSpeed="0.00" departDelay="-0.85" arrival="605.00" arrivalLane="28_0" arrivalPos="195.25" arrivalSpeed="0.42" duration="604.00" routeLength="190.06" waitSteps="0" rerouteNo="0" devices="tripinfo_359" vType="3" vaporized=""/>
    <tripinfo id="636" depart="27.00" departLane="76_0" departPos="6.13" departSpeed="0.00" departDelay="-0.47" arrival="606.00" arrivalLane="76_0" arrivalPos="195.25" arrivalSpeed="0.47" duration="579.00" routeLength="189.12" waitSteps="0" rerouteNo="0" devices="tripinfo_636" vType="1" vaporized=""/>
    <tripinfo id="794" depart="246.00" departLane="18_0" departPos="1.64" departSpeed="0.00" departDelay="2.75" arrival="609.00" arrivalLane="18_0" arrivalPos="195.25" arrivalSpeed="3.98" duration="363.00" routeLength="193.61" waitSteps="6" rerouteNo="0" devices="tripinfo_794" vType="5" vaporized=""/>
    <tripinfo id="930" depart="27.00" departLane="28_0" departPos="2.43" departSpeed="0.00" departDelay="-0.89" arrival="613.00" arrivalLane="28_0" arrivalPos="195.25" arrivalSpeed="1.57" duration="586.00" routeLength="192.82" waitSteps="21" rerouteNo="0" devices="tripinfo_930" vType="6" vaporized=""/>
    <tripinfo id="885" depart="256.00" departLane="18_0" departPos="6.64" departSpeed="0.00" departDelay="-0.73" arrival="617.00" arrivalLane="18_0" arrivalPos="195.25" arrivalSpeed="2.23" duration="361.00" routeLength="188.61" waitSteps="42" rerouteNo="0" devices="tripinfo_885" vType="9" vaporized=""/>
    <tripinfo id="782" depart="151.00" departLane="76_0" departPos="2.43" departSpeed="0.00" departDelay="-0.53" arrival="617.00" arrivalLane="76_0" arrivalPos="195.25" arrivalSpeed="1.66" duration="466.00" routeLength="192.82" waitSteps="1" rerouteNo="0" devices="tripinfo_782" vType="6" vaporized=""/>
    <tripinfo id="471" depart="57.00" departLane="28_0" departPos="4.17" departSpeed="0.00" departDelay="19.59" arrival="619.00" arrivalLane="28_0" arrivalPos="195.25" arrivalSpeed="3.06" duration="562.00" routeLength="191.08" waitSteps="22" rerouteNo="0" devices="tripinfo_471" vType="8" vaporized=""/>
    <tripinfo id="336" depart="28.00" departLane="8_0" departPos="5.19" departSpeed="0.00" departDelay="-0.61" arrival="620.00" arrivalLane="8_0" arrivalPos="195.25" arrivalSpeed="0.34" duration="592.00" routeLength="190.06" waitSteps="0" rerouteNo="0" devices="tripinfo_336" vType="3" vaporized=""/>
    <tripinfo id="350" depart="157.00" departLane="76_0" departPos="1.64" departSpeed="0.00" departDelay="4.82" arrival="621.00" arrivalLane="76_0" arrivalPos="195.25" arrivalSpeed="4.00" duration="464.00" routeLength="193.61" waitSteps="10" rerouteNo="0" devices="tripinfo_350" vType="5" vaporized=""/>
    <tripinfo id="727" depart="103.00" departLane="28_0" departPos="4.17" departSpeed="0.00" departDelay="-0.68" arrival="624.00" arrivalLane="28_0" arrivalPos="195.25" arrivalSpeed="3.53" duration="521.00" routeLength="191.08" waitSteps="26" rerouteNo="0" devices="tripinfo_727" vType="8" vaporized=""/>
    <tripinfo id="583" depart="549.00" departLane="36_0" departPos="6.13" departSpeed="0.00" departDelay="249.30" arrival="624.00" arrivalLane="38_0" arrivalPos="195.25" arrivalSpeed="0.27" duration="75.00" routeLength="379.62" waitSteps="0" rerouteNo="0" devices="tripinfo_583" vType="1" vaporized=""/>
    <tripinfo id="387" depart="13.00" departLane="11_0" departPos="5.19" departSpeed="0.00" departDelay="-0.81" arrival="627.00" arrivalLane="11_0" arrivalPos="195.25" arrivalSpeed="0.52" duration="614.00" routeLength="190.06" waitSteps="1" rerouteNo="0" devices="tripinfo_387" vType="3" vaporized=""/>
    <tripinfo id="543" depart="64.00" departLane="8_0" departPos="6.26" departSpeed="0.00" departDelay="-0.51" arrival="629.00" arrivalLane="8_0" arrivalPos="195.25" arrivalSpeed="1.83" duration="565.00" routeLength="188.99" waitSteps="0" rerouteNo="0" devices="tripinfo_543" vType="4" vaporized=""/>
    <tripinfo id="863" depart="215.00" departLane="76_0" departPos="6.64" departSpeed="0.00" departDelay="-0.33" arrival="629.00" arrivalLane="76_0" arrivalPos="195.25" arrivalSpeed="1.90" duration="414.00" routeLength="188.61" waitSteps="56" rerouteNo="0" devices="tripinfo_863" vType="9" vaporized=""/>
    <tripinfo id="83" depart="368.00" departLane="23_0" departPos="5.66" departSpeed="0.00" departDelay="50.84" arrival="630.00" arrivalLane="21_0" arrivalPos="195.25" arrivalSpeed="2.11" duration="262.00" routeLength="380.09" waitSteps="44" rerouteNo="0" devices="tripinfo_83" vType="7" vaporized=""/>
    <tripinfo id="474" depart="53.00" departLane="74_0" departPos="6.13" departSpeed="0.00" departDelay="-0.51" arrival="631.00" arrivalLane="74_0" arrivalPos="195.25" arrivalSpeed="0.29" duration="578.00" routeLength="189.12" waitSteps="0" rerouteNo="0" devices="tripinfo_474" vType="1" vaporized=""/>
    <tripinfo id="966" depart="144.00" departLane="28_0" departPos="6.64" departSpeed="0.00" departDelay="-0.83" arrival="633.00" arrivalLane="28_0" arrivalPos="195.25" arrivalSpeed="1.61" duration="489.00" routeLength="188.61" waitSteps="62" rerouteNo="0" devices="tripinfo_966" vType="9" vaporized=""/>
    <tripinfo id="846" depart="38.00" departLane="11_0" departPos="2.43" departSpeed="0.00" departDelay="13.82" arrival="634.00" arrivalLane="11_0" arrivalPos="195.25" arrivalSpeed="1.67" duration="596.00" routeLength="192.82" waitSteps="21" rerouteNo="0" devices="tripinfo_846" vType="6" vaporized=""/>
    <tripinfo id="763" depart="19.00" departLane="47_0" departPos="5.19" departSpeed="0.00" departDelay="-0.15" arrival="635.00" arrivalLane="47_0" arrivalPos="195.25" arrivalSpeed="0.17" duration="616.00" routeLength="190.06" waitSteps="0" rerouteNo="0" devices="tripinfo_763" vType="3" vaporized=""/>
    <tripinfo id="442" depart="90.00" departLane="8_0" departPos="6.64" departSpeed="0.00" departDelay="24.66" arrival="635.00" arrivalLane="8_0" arrivalPos="195.25" arrivalSpeed="1.77" duration="545.00" routeLength="188.61" waitSteps="72" rerouteNo="0" devices="tripinfo_442" vType="9" vaporized=""/>
    <tripinfo id="750" depart="229.00" departLane="76_0" departPos="1.20" departSpeed="0.00" departDelay="-0.94" arrival="635.00" arrivalLane="76_0" arrivalPos="195.25" arrivalSpeed="3.79" duration="406.00" routeLength="194.05" waitSteps="15" rerouteNo="0" devices="tripinfo_750" vType="2" vaporized=""/>
    <tripinfo id="573" depart="153.00" departLane="28_0" departPos="1.20" departSpeed="0.00" departDelay="2.12" arrival="639.00" arrivalLane="28_0" arrivalPos="195.25" arrivalSpeed="4.08" duration="486.00" routeLength="194.05" waitSteps="14" rerouteNo="0" devices="tripinfo_573" vType="2" vaporized=""/>
    <tripinfo id="408" depart="15.00" departLane="57_0" departPos="1.20" departSpeed="0.00" departDelay="-0.77" arrival="640.00" arrivalLane="11_0" arrivalPos="195.25" arrivalSpeed="3.75" duration="625.00" routeLength="384.55" waitSteps="8" rerouteNo="0" devices="tripinfo_408" vType="2" vaporized=""/>
    <tripinfo id="388" depart="156.00" departLane="74_0" departPos="6.64" departSpeed="0.00" departDelay="2.53" arrival="640.00" arrivalLane="74_0" arrivalPos="195.25" arrivalSpeed="1.96" duration="484.00" routeLength="188.61" waitSteps="53" rerouteNo="0" devices="tripinfo_388" vType="9" vaporized=""/>
    <tripinfo id="659" depart="105.00" departLane="47_0" departPos="1.64" departSpeed="0.00" departDelay="-0.65" arrival="641.00" arrivalLane="47_0" arrivalPos="195.25" arrivalSpeed="3.34" duration="536.00" routeLength="193.61" waitSteps="11" rerouteNo="0" devices="tripinfo_659" vType="5" vaporized=""/>
    <tripinfo id="367" depart="186.00" departLane="28_0" departPos="1.20" departSpeed="0.00" departDelay="29.77" arrival="643.00" arrivalLane="28_0" arrivalPos="195.25" arrivalSpeed="4.20" duration="457.00" routeLength="194.05" waitSteps="6" rerouteNo="0" devices="tripinfo_367" vType="2" vaporized=""/>
    <tripinfo id="473" depart="27.00" departLane="57_0" departPos="4.17" departSpeed="0.00" departDelay="-0.49" arrival="644.00" arrivalLane="11_0" arrivalPos="195.25" arrivalSpeed="4.04" duration="617.00" routeLength="381.58" waitSteps="28" rerouteNo="0" devices="tripinfo_473" vType="8" vaporized=""/>
    <tripinfo id="784" depart="45.00" departLane="41_0" departPos="5.19" departSpeed="0.00" departDelay="-0.82" arrival="647.00" arrivalLane="41_0" arrivalPos="195.25" arrivalSpeed="0.49" duration="602.00" routeLength="190.06" waitSteps="0" rerouteNo="0" devices="tripinfo_784" vType="3" vaporized=""/>