<?xml version="1.0" encoding="UTF-8"?>

<!-- generated on Mon Oct 28 23:59:35 2013 by SUMO sumo Version 0.17.1
<?xml version="1.0" encoding="UTF-8"?>

<configuration xmlns:xsi="http://www.w3.org/2001/XMLSchema-instance" xsi:noNamespaceSchemaLocation="http://sumo.sf.net/xsd/sumoConfiguration.xsd">

    <input>
        <net-file value="../road_map/data/cross.net.xml"/>
        <route-files value="../road_map/data/cross.rou.xml"/>
        <additional-files value="../road_map/data/e1.add.xml"/>
    </input>

    <output>
        <tripinfo-output value="../road_map/tripinfo.xml"/>
    </output>

    <time>
        <begin value="0"/>
    </time>

    <report>
        <verbose value="true"/>
        <no-step-log value="true"/>
    </report>

</configuration>
-->

<tripinfos>
    <tripinfo id="0" depart="0.00" departLane="52o_0" departPos="5.10" departSpeed="0.00" departDelay="0.00" arrival="112.00" arrivalLane="51i_0" arrivalPos="10.00" arrivalSpeed="9.77" duration="112.00" routeLength="1005.40" waitSteps="0" rerouteNo="0" devices="tripinfo_0" vType="typeWE" vaporized=""/>
    <tripinfo id="1" depart="3.00" departLane="51o_0" departPos="5.10" departSpeed="0.00" departDelay="0.00" arrival="115.00" arrivalLane="52i_0" arrivalPos="10.00" arrivalSpeed="9.88" duration="112.00" routeLength="1005.40" waitSteps="0" rerouteNo="0" devices="tripinfo_1" vType="typeWE" vaporized=""/>
    <tripinfo id="3" depart="6.00" departLane="52o_0" departPos="5.10" departSpeed="0.00" departDelay="0.00" arrival="118.00" arrivalLane="51i_0" arrivalPos="10.00" arrivalSpeed="9.78" duration="112.00" routeLength="1005.40" waitSteps="0" rerouteNo="0" devices="tripinfo_3" vType="typeWE" vaporized=""/>
    <tripinfo id="2" depart="7.00" departLane="51o_0" departPos="5.10" departSpeed="0.00" departDelay="3.00" arrival="119.00" arrivalLane="52i_0" arrivalPos="10.00" arrivalSpeed="9.79" duration="112.00" routeLength="1005.40" waitSteps="1" rerouteNo="0" devices="tripinfo_2" vType="typeWE" vaporized=""/>
    <tripinfo id="4" depart="7.00" departLane="54o_0" departPos="10.00" departSpeed="0.00" departDelay="0.00" arrival="132.00" arrivalLane="53i_0" arrivalPos="10.00" arrivalSpeed="9.95" duration="125.00" routeLength="1000.50" waitSteps="0" rerouteNo="0" devices="tripinfo_4" vType="typeNS" vaporized=""/>
    <tripinfo id="5" depart="15.00" departLane="54o_0" departPos="10.00" departSpeed="0.00" departDelay="7.00" arrival="136.00" arrivalLane="53i_0" arrivalPos="10.00" arrivalSpeed="9.83" duration="121.00" routeLength="1000.50" waitSteps="0" rerouteNo="0" devices="tripinfo_5" vType="typeNS" vaporized=""/>
    <tripinfo id="6" depart="23.00" departLane="54o_0" departPos="10.00" departSpeed="0.00" departDelay="10.00" arrival="140.00" arrivalLane="53i_0" arrivalPos="10.00" arrivalSpeed="9.79" duration="117.00" routeLength="1000.50" waitSteps="0" rerouteNo="0" devices="tripinfo_6" vType="typeNS" vaporized=""/>
    <tripinfo id="7" depart="31.00" departLane="54o_0" departPos="10.00" departSpeed="0.00" departDelay="17.00" arrival="145.00" arrivalLane="53i_0" arrivalPos="10.00" arrivalSpeed="9.93" duration="114.00" routeLength="1000.50" waitSteps="0" rerouteNo="0" devices="tripinfo_7" vType="typeNS" vaporized=""/>
    <tripinfo id="8" depart="39.00" departLane="54o_0" departPos="10.00" departSpeed="0.00" departDelay="21.00" arrival="151.00" arrivalLane="53i_0" arrivalPos="10.00" arrivalSpeed="9.99" duration="112.00" routeLength="1000.50" waitSteps="0" rerouteNo="0" devices="tripinfo_8" vType="typeNS" vaporized=""/>
    <tripinfo id="10" depart="47.00" departLane="54o_0" departPos="10.00" departSpeed="0.00" departDelay="18.00" arrival="159.00" arrivalLane="53i_0" arrivalPos="10.00" arrivalSpeed="9.94" duration="112.00" routeLength="1000.50" waitSteps="0" rerouteNo="0" devices="tripinfo_10" vType="typeNS" vaporized=""/>
    <tripinfo id="15" depart="42.00" departLane="51o_0" departPos="5.10" departSpeed="0.00" departDelay="0.00" arrival="169.00" arrivalLane="52i_0" arrivalPos="10.00" arrivalSpeed="9.93" duration="127.00" routeLength="1005.40" waitSteps="0" rerouteNo="0" devices="tripinfo_15" vType="typeWE" vaporized=""/>
    <tripinfo id="9" depart="22.00" departLane="52o_0" departPos="5.10" departSpeed="0.00" departDelay="0.00" arrival="171.00" arrivalLane="51i_0" arrivalPos="10.00" arrivalSpeed="9.80" duration="149.00" routeLength="1005.40" waitSteps="15" rerouteNo="0" devices="tripinfo_9" vType="typeWE" vaporized=""/>
    <tripinfo id="11" depart="33.00" departLane="52o_0" departPos="5.10" departSpeed="0.00" departDelay="0.00" arrival="174.00" arrivalLane="51i_0" arrivalPos="10.00" arrivalSpeed="9.77" duration="141.00" routeLength="1005.40" waitSteps="7" rerouteNo="0" devices="tripinfo_11" vType="typeWE" vaporized=""/>
    <tripinfo id="14" depart="41.00" departLane="52o_0" departPos="5.10" departSpeed="0.00" departDelay="0.00" arrival="177.00" arrivalLane="51i_0" arrivalPos="10.00" arrivalSpeed="9.79" duration="136.00" routeLength="1005.40" waitSteps="0" rerouteNo="0" devices="tripinfo_14" vType="typeWE" vaporized=""/>
    <tripinfo id="12" depart="56.00" departLane="54o_0" departPos="10.00" departSpeed="0.00" departDelay="19.00" arrival="208.00" arrivalLane="53i_0" arrivalPos="10.00" arrivalSpeed="9.92" duration="152.00" routeLength="1000.50" waitSteps="19" rerouteNo="0" devices="tripinfo_12" vType="typeNS" vaporized=""/>
    <tripinfo id="13" depart="65.00" departLane="54o_0" departPos="10.00" departSpeed="0.00" departDelay="26.00" arrival="212.00" arrivalLane="53i_0" arrivalPos="10.00" arrivalSpeed="9.94" duration="147.00" routeLength="1000.50" waitSteps="14" rerouteNo="0" devices="tripinfo_13" vType="typeNS" vaporized=""/>
    <tripinfo id="16" depart="74.00" departLane="54o_0" departPos="10.00" departSpeed="0.00" departDelay="31.00" arrival="217.00" arrivalLane="53i_0" arrivalPos="10.00" arrivalSpeed="9.65" duration="143.00" routeLength="1000.50" waitSteps="9" rerouteNo="0" devices="tripinfo_16" vType="typeNS" vaporized=""/>
    <tripinfo id="17" depart="82.00" departLane="54o_0" departPos="10.00" departSpeed="0.00" departDelay="38.00" arrival="221.00" arrivalLane="53i_0" arrivalPos="10.00" arrivalSpeed="9.94" duration="139.00" routeLength="1000.50" waitSteps="4" rerouteNo="0" devices="tripinfo_17" vType="typeNS" vaporized=""/>
    <tripinfo id="18" depart="90.00" departLane="54o_0" departPos="10.00" departSpeed="0.00" departDelay="32.00" arrival="225.00" arrivalLane="53i_0" arrivalPos="10.00" arrivalSpeed="9.73" duration="135.00" routeLength="1000.50" waitSteps="0" rerouteNo="0" devices="tripinfo_18" vType="typeNS" vaporized=""/>
    <tripinfo id="19" depart="98.00" departLane="54o_0" departPos="10.00" departSpeed="0.00" departDelay="36.00" arrival="228.00" arrivalLane="53i_0" arrivalPos="10.00" arrivalSpeed="9.91" duration="130.00" routeLength="1000.50" waitSteps="0" rerouteNo="0" devices="tripinfo_19" vType="typeNS" vaporized=""/>
    <tripinfo id="20" depart="106.00" departLane="54o_0" departPos="10.00" departSpeed="0.00" departDelay="41.00" arrival="232.00" arrivalLane="53i_0" arrivalPos="10.00" arrivalSpeed="9.62" duration="126.00" routeLength="1000.50" waitSteps="0" rerouteNo="0" devices="tripinfo_20" vType="typeNS" vaporized=""/>
    <tripinfo id="21" depart="114.00" departLane="54o_0" departPos="10.00" departSpeed="0.00" departDelay="47.00" arrival="236.00" arrivalLane="53i_0" arrivalPos="10.00" arrivalSpeed="9.60" duration="122.00" routeLength="1000.50" waitSteps="0" rerouteNo="0" devices="tripinfo_21" vType="typeNS" vaporized=""/>
    <tripinfo id="37" depart="131.00" departLane="52o_0" departPos="5.10" departSpeed="0.00" departDelay="0.00" arrival="244.00" arrivalLane="51i_0" arrivalPos="10.00" arrivalSpeed="9.90" duration="113.00" routeLength="1005.40" waitSteps="0" rerouteNo="0" devices="tripinfo_37" vType="typeWE" vaporized=""/>
    <tripinfo id="30" depart="99.00" departLane="51o_0" departPos="5.10" departSpeed="0.00" departDelay="0.00" arrival="246.00" arrivalLane="52i_0" arrivalPos="10.00" arrivalSpeed="9.85" duration="147.00" routeLength="1005.40" waitSteps="13" rerouteNo="0" devices="tripinfo_30" vType="typeWE" vaporized=""/>
    <tripinfo id="22" depart="123.00" departLane="54o_0" departPos="10.00" departSpeed="0.00" departDelay="51.00" arrival="247.00" arrivalLane="53i_0" arrivalPos="10.00" arrivalSpeed="9.65" duration="124.00" routeLength="1000.50" waitSteps="0" rerouteNo="0" devices="tripinfo_22" vType="typeNS" vaporized=""/>
    <tripinfo id="38" depart="138.00" departLane="52o_0" departPos="5.10" departSpeed="0.00" departDelay="0.00" arrival="250.00" arrivalLane="51i_0" arrivalPos="10.00" arrivalSpeed="9.61" duration="112.00" routeLength="1005.40" waitSteps="0" rerouteNo="0" devices="tripinfo_38" vType="typeWE" vaporized=""/>
    <tripinfo id="32" depart="118.00" departLane="51o_0" departPos="5.10" departSpeed="0.00" departDelay="10.00" arrival="251.00" arrivalLane="52i_0" arrivalPos="10.00" arrivalSpeed="9.63" duration="133.00" routeLength="1005.40" waitSteps="0" rerouteNo="0" devices="tripinfo_32" vType="typeWE" vaporized=""/>
    <tripinfo id="33" depart="122.00" departLane="51o_0" departPos="5.10" departSpeed="0.00" departDelay="8.00" arrival="253.00" arrivalLane="52i_0" arrivalPos="10.00" arrivalSpeed="9.66" duration="131.00" routeLength="1005.40" waitSteps="1" rerouteNo="0" devices="tripinfo_33" vType="typeWE" vaporized=""/>
    <tripinfo id="41" depart="142.00" departLane="52o_0" departPos="5.10" departSpeed="0.00" departDelay="0.00" arrival="254.00" arrivalLane="51i_0" arrivalPos="10.00" arrivalSpeed="9.83" duration="112.00" routeLength="1005.40" waitSteps="1" rerouteNo="0" devices="tripinfo_41" vType="typeWE" vaporized=""/>
    <tripinfo id="23" depart="131.00" departLane="54o_0" departPos="10.00" departSpeed="0.00" departDelay="57.00" arrival="283.00" arrivalLane="53i_0" arrivalPos="10.00" arrivalSpeed="9.85" duration="152.00" routeLength="1000.50" waitSteps="15" rerouteNo="0" devices="tripinfo_23" vType="typeNS" vaporized=""/>
    <tripinfo id="24" depart="139.00" departLane="54o_0" departPos="10.00" departSpeed="0.00" departDelay="63.00" arrival="286.00" arrivalLane="53i_0" arrivalPos="10.00" arrivalSpeed="9.80" duration="147.00" routeLength="1000.50" waitSteps="13" rerouteNo="0" devices="tripinfo_24" vType="typeNS" vaporized=""/>
    <tripinfo id="25" depart="147.00" departLane="54o_0" departPos="10.00" departSpeed="0.00" departDelay="60.00" arrival="290.00" arrivalLane="53i_0" arrivalPos="10.00" arrivalSpeed="9.90" duration="143.00" routeLength="1000.50" waitSteps="7" rerouteNo="0" devices="tripinfo_25" vType="typeNS" vaporized=""/>
    <tripinfo id="26" depart="156.00" departLane="54o_0" departPos="10.00" departSpeed="0.00" departDelay="67.00" arrival="294.00" arrivalLane="53i_0" arrivalPos="10.00" arrivalSpeed="9.61" duration="138.00" routeLength="1000.50" waitSteps="3" rerouteNo="0" devices="tripinfo_26" vType="typeNS" vaporized=""/>
    <tripinfo id="27" depart="164.00" departLane="54o_0" departPos="10.00" departSpeed="0.00" departDelay="73.00" arrival="298.00" arrivalLane="53i_0" arrivalPos="10.00" arrivalSpeed="9.93" duration="134.00" routeLength="1000.50" waitSteps="0" rerouteNo="0" devices="tripinfo_27" vType="typeNS" vaporized=""/>
    <tripinfo id="28" depart="172.00" departLane="54o_0" departPos="10.00" departSpeed="0.00" departDelay="77.00" arrival="302.00" arrivalLane="53i_0" arrivalPos="10.00" arrivalSpeed="9.61" duration="130.00" routeLength="1000.50" waitSteps="0" rerouteNo="0" devices="tripinfo_28" vType="typeNS" vaporized=""/>
    <tripinfo id="29" depart="180.00" departLane="54o_0" departPos="10.00" departSpeed="0.00" departDelay="84.00" arrival="305.00" arrivalLane="53i_0" arrivalPos="10.00" arrivalSpeed="9.61" duration="125.00" routeLength="1000.50" waitSteps="0" rerouteNo="0" devices="tripinfo_29" vType="typeNS" vaporized=""/>
    <tripinfo id="31" depart="188.00" departLane="54o_0" departPos="10.00" departSpeed="0.00" departDelay="87.00" arrival="309.00" arrivalLane="53i_0" arrivalPos="10.00" arrivalSpeed="9.79" duration="121.00" routeLength="1000.50" waitSteps="0" rerouteNo="0" devices="tripinfo_31" vType="typeNS" vaporized=""/>
    <tripinfo id="34" depart="197.00" departLane="54o_0" departPos="10.00" departSpeed="0.00" departDelay="80.00" arrival="318.00" arrivalLane="53i_0" arrivalPos="10.00" arrivalSpeed="9.89" duration="121.00" routeLength="1000.50" waitSteps="0" rerouteNo="0" devices="tripinfo_34" vType="typeNS" vaporized=""/>
    <tripinfo id="45" depart="177.00" departLane="51o_0" departPos="5.10" departSpeed="0.00" departDelay="10.00" arrival="319.00" arrivalLane="52i_0" arrivalPos="10.00" arrivalSpeed="9.98" duration="142.00" routeLength="1005.40" waitSteps="9" rerouteNo="0" devices="tripinfo_45" vType="typeWE" vaporized=""/>
    <tripinfo id="42" depart="169.00" departLane="52o_0" departPos="5.10" departSpeed="0.00" departDelay="9.00" arrival="320.00" arrivalLane="51i_0" arrivalPos="10.00" arrivalSpeed="9.74" duration="151.00" routeLength="1005.40" waitSteps="17" rerouteNo="0" devices="tripinfo_42" vType="typeWE" vaporized=""/>
    <tripinfo id="46" depart="181.00" departLane="51o_0" departPos="5.10" departSpeed="0.00" departDelay="13.00" arrival="321.00" arrivalLane="52i_0" arrivalPos="10.00" arrivalSpeed="9.81" duration="140.00" routeLength="1005.40" waitSteps="7" rerouteNo="0" devices="tripinfo_46" vType="typeWE" vaporized=""/>
    <tripinfo id="43" depart="173.00" departLane="52o_0" departPos="5.10" departSpeed="0.00" departDelay="9.00" arrival="323.00" arrivalLane="51i_0" arrivalPos="10.00" arrivalSpeed="9.84" duration="150.00" routeLength="1005.40" waitSteps="15" rerouteNo="0" devices="tripinfo_43" vType="typeWE" vaporized=""/>
    <tripinfo id="50" depart="186.00" departLane="51o_0" departPos="5.10" departSpeed="0.00" departDelay="10.00" arrival="324.00" arrivalLane="52i_0" arrivalPos="10.00" arrivalSpeed="9.93" duration="138.00" routeLength="1005.40" waitSteps="4" rerouteNo="0" devices="tripinfo_50" vType="typeWE" vaporized=""/>
    <tripinfo id="57" depart="196.00" departLane="52o_0" departPos="5.10" departSpeed="0.00" departDelay="0.00" arrival="325.00" arrivalLane="51i_0" arrivalPos="10.00" arrivalSpeed="9.78" duration="129.00" routeLength="1005.40" waitSteps="0" rerouteNo="0" devices="tripinfo_57" vType="typeWE" vaporized=""/>
    <tripinfo id="55" depart="191.00" departLane="51o_0" departPos="5.10" departSpeed="0.00" departDelay="10.00" arrival="327.00" arrivalLane="52i_0" arrivalPos="10.00" arrivalSpeed="9.96" duration="136.00" routeLength="1005.40" waitSteps="1" rerouteNo="0" devices="tripinfo_55" vType="typeWE" vaporized=""/>
    <tripinfo id="58" depart="200.00" departLane="52o_0" departPos="5.10" departSpeed="0.00" departDelay="1.00" arrival="327.00" arrivalLane="51i_0" arrivalPos="10.00" arrivalSpeed="9.70" duration="127.00" routeLength="1005.40" waitSteps="1" rerouteNo="0" devices="tripinfo_58" vType="typeWE" vaporized=""/>
    <tripinfo id="62" depart="212.00" departLane="52o_0" departPos="5.10" departSpeed="0.00" departDelay="0.00" arrival="330.00" arrivalLane="51i_0" arrivalPos="10.00" arrivalSpeed="9.84" duration="118.00" routeLength="1005.40" waitSteps="0" rerouteNo="0" devices="tripinfo_62" vType="typeWE" vaporized=""/>
    <tripinfo id="67" depart="228.00" departLane="51o_0" departPos="5.10" departSpeed="0.00" departDelay="0.00" arrival="340.00" arrivalLane="52i_0" arrivalPos="10.00" arrivalSpeed="9.87" duration="112.00" routeLength="1005.40" waitSteps="0" rerouteNo="0" devices="tripinfo_67" vType="typeWE" vaporized=""/>
    <tripinfo id="35" depart="205.00" departLane="54o_0" departPos="10.00" departSpeed="0.00" departDelay="83.00" arrival="356.00" arrivalLane="53i_0" arrivalPos="10.00" arrivalSpeed="9.82" duration="151.00" routeLength="1000.50" waitSteps="16" rerouteNo="0" devices="tripinfo_35" vType="typeNS" vaporized=""/>
    <tripinfo id="36" depart="213.00" departLane="54o_0" departPos="10.00" departSpeed="0.00" departDelay="85.00" arrival="359.00" arrivalLane="53i_0" arrivalPos="10.00" arrivalSpeed="9.95" duration="146.00" routeLength="1000.50" waitSteps="11" rerouteNo="0" devices="tripinfo_36" vType="typeNS" vaporized=""/>
    <tripinfo id="39" depart="221.00" departLane="54o_0" departPos="10.00" departSpeed="0.00" departDelay="82.00" arrival="363.00" arrivalLane="53i_0" arrivalPos="10.00" arrivalSpeed="9.87" duration="142.00" routeLength="1000.50" waitSteps="8" rerouteNo="0" devices="tripinfo_39" vType="typeNS" vaporized=""/>
    <tripinfo id="40" depart="229.00" departLane="54o_0" departPos="10.00" departSpeed="0.00" departDelay="89.00" arrival="368.00" arrivalLane="53i_0" arrivalPos="10.00" arrivalSpeed="9.78" duration="139.00" routeLength="1000.50" waitSteps="4" rerouteNo="0" devices="tripinfo_40" vType="typeNS" vaporized=""/>
    <tripinfo id="44" depart="237.00" departLane="54o_0" departPos="10.00" departSpeed="0.00" departDelay="72.00" arrival="372.00" arrivalLane="53i_0" arrivalPos="10.00" arrivalSpeed="9.84" duration="135.00" routeLength="1000.50" waitSteps="0" rerouteNo="0" devices="tripinfo_44" vType="typeNS" vaporized=""/>
    <tripinfo id="47" depart="245.00" departLane="54o_0" departPos="10.00" departSpeed="0.00" departDelay="77.00" arrival="375.00" arrivalLane="53i_0" arrivalPos="10.00" arrivalSpeed="9.64" duration="130.00" routeLength="1000.50" waitSteps="0" rerouteNo="0" devices="tripinfo_47" vType="typeNS" vaporized=""/>
    <tripinfo id="48" depart="253.00" departLane="54o_0" departPos="10.00" departSpeed="0.00" departDelay="81.00" arrival="379.00" arrivalLane="53i_0" arrivalPos="10.00" arrivalSpeed="9.62" duration="126.00" routeLength="1000.50" waitSteps="0" rerouteNo="0" devices="tripinfo_48" vType="typeNS" vaporized=""/>
    <tripinfo id="49" depart="261.00" departLane="54o_0" departPos="10.00" departSpeed="0.00" departDelay="86.00" arrival="383.00" arrivalLane="53i_0" arrivalPos="10.00" arrivalSpeed="9.70" duration="122.00" routeLength="1000.50" waitSteps="0" rerouteNo="0" devices="tripinfo_49" vType="typeNS" vaporized=""/>
    <tripinfo id="51" depart="269.00" departLane="54o_0" departPos="10.00" departSpeed="0.00" departDelay="93.00" arrival="390.00" arrivalLane="53i_0" arrivalPos="10.00" arrivalSpeed="9.80" duration="121.00" routeLength="1000.50" waitSteps="0" rerouteNo="0" devices="tripinfo_51" vType="typeNS" vaporized=""/>
    <tripinfo id="78" depart="294.00" departLane="51o_0" departPos="5.10" departSpeed="0.00" departDelay="0.00" arrival="406.00" arrivalLane="52i_0" arrivalPos="10.00" arrivalSpeed="9.85" duration="112.00" routeLength="1005.40" waitSteps="0" rerouteNo="0" devices="tripinfo_78" vType="typeWE" vaporized=""/>
    <tripinfo id="52" depart="277.00" departLane="54o_0" departPos="10.00" departSpeed="0.00" departDelay="99.00" arrival="430.00" arrivalLane="53i_0" arrivalPos="10.00" arrivalSpeed="9.80" duration="153.00" routeLength="1000.50" waitSteps="18" rerouteNo="0" devices="tripinfo_52" vType="typeNS" vaporized=""/>
    <tripinfo id="53" depart="285.00" departLane="54o_0" departPos="10.00" departSpeed="0.00" departDelay="106.00" arrival="434.00" arrivalLane="53i_0" arrivalPos="10.00" arrivalSpeed="9.77" duration="149.00" routeLength="1000.50" waitSteps="15" rerouteNo="0" devices="tripinfo_53" vType="typeNS" vaporized=""/>
    <tripinfo id="54" depart="293.00" departLane="54o_0" departPos="10.00" departSpeed="0.00" departDelay="113.00" arrival="437.00" arrivalLane="53i_0" arrivalPos="10.00" arrivalSpeed="9.72" duration="144.00" routeLength="1000.50" waitSteps="10" rerouteNo="0" devices="tripinfo_54" vType="typeNS" vaporized=""/>
    <tripinfo id="56" depart="301.00" departLane="54o_0" departPos="10.00" departSpeed="0.00" departDelay="113.00" arrival="441.00" arrivalLane="53i_0" arrivalPos="10.00" arrivalSpeed="9.64" duration="140.00" routeLength="1000.50" waitSteps="6" rerouteNo="0" devices="tripinfo_56" vType="typeNS" vaporized=""/>
    <tripinfo id="59" depart="309.00" departLane="54o_0" departPos="10.00" departSpeed="0.00" departDelay="107.00" arrival="445.00" arrivalLane="53i_0" arrivalPos="10.00" arrivalSpeed="9.67" duration="136.00" routeLength="1000.50" waitSteps="0" rerouteNo="0" devices="tripinfo_59" vType="typeNS" vaporized=""/>
    <tripinfo id="60" depart="318.00" departLane="54o_0" departPos="10.00" departSpeed="0.00" departDelay="111.00" arrival="449.00" arrivalLane="53i_0" arrivalPos="10.00" arrivalSpeed="9.88" duration="131.00" routeLength="1000.50" waitSteps="0" rerouteNo="0" devices="tripinfo_60" vType="typeNS" vaporized=""/>
    <tripinfo id="61" depart="326.00" departLane="54o_0" departPos="10.00" departSpeed="0.00" departDelay="118.00" arrival="452.00" arrivalLane="53i_0" arrivalPos="10.00" arrivalSpeed="9.65" duration="126.00" routeLength="1000.50" waitSteps="0" rerouteNo="0" devices="tripinfo_61" vType="typeNS" vaporized=""/>
    <tripinfo id="63" depart="335.00" departLane="54o_0" departPos="10.00" departSpeed="0.00" departDelay="119.00" arrival="456.00" arrivalLane="53i_0" arrivalPos="10.00" arrivalSpeed="9.89" duration="121.00" routeLength="1000.50" waitSteps="0" rerouteNo="0" devices="tripinfo_63" vType="typeNS" vaporized=""/>
    <tripinfo id="64" depart="343.00" departLane="54o_0" departPos="10.00" departSpeed="0.00" departDelay="125.00" arrival="463.00" arrivalLane="53i_0" arrivalPos="10.00" arrivalSpeed="9.89" duration="120.00" routeLength="1000.50" waitSteps="0" rerouteNo="0" devices="tripinfo_64" vType="typeNS" vaporized=""/>
    <tripinfo id="95" depart="344.00" departLane="52o_0" departPos="5.10" departSpeed="0.00" departDelay="0.00" arrival="464.00" arrivalLane="51i_0" arrivalPos="10.00" arrivalSpeed="9.95" duration="120.00" routeLength="1005.40" waitSteps="0" rerouteNo="0" devices="tripinfo_95" vType="typeWE" vaporized=""/>
    <tripinfo id="84" depart="330.00" departLane="51o_0" departPos="5.10" departSpeed="0.00" departDelay="8.00" arrival="470.00" arrivalLane="52i_0" arrivalPos="10.00" arrivalSpeed="9.99" duration="140.00" routeLength="1005.40" waitSteps="6" rerouteNo="0" devices="tripinfo_84" vType="typeWE" vaporized=""/>
    <tripinfo id="92" depart="342.00" departLane="51o_0" departPos="5.10" departSpeed="0.00" departDelay="0.00" arrival="472.00" arrivalLane="52i_0" arrivalPos="10.00" arrivalSpeed="9.62" duration="130.00" routeLength="1005.40" waitSteps="0" rerouteNo="0" devices="tripinfo_92" vType="typeWE" vaporized=""/>
    <tripinfo id="106" depart="375.00" departLane="51o_0" departPos="5.10" departSpeed="0.00" departDelay="0.00" arrival="488.00" arrivalLane="52i_0" arrivalPos="10.00" arrivalSpeed="9.70" duration="113.00" routeLength="1005.40" waitSteps="0" rerouteNo="0" devices="tripinfo_106" vType="typeWE" vaporized=""/>
    <tripinfo id="65" depart="351.00" departLane="54o_0" departPos="10.00" departSpeed="0.00" departDelay="132.00" arrival="504.00" arrivalLane="53i_0" arrivalPos="10.00" arrivalSpeed="9.72" duration="153.00" routeLength="1000.50" waitSteps="18" rerouteNo="0" devices="tripinfo_65" vType="typeNS" vaporized=""/>
    <tripinfo id="66" depart="359.00" departLane="54o_0" departPos="10.00" departSpeed="0.00" departDelay="132.00" arrival="508.00" arrivalLane="53i_0" arrivalPos="10.00" arrivalSpeed="9.81" duration="149.00" routeLength="1000.50" waitSteps="14" rerouteNo="0" devices="tripinfo_66" vType="typeNS" vaporized=""/>
    <tripinfo id="68" depart="367.00" departLane="54o_0" departPos="10.00" departSpeed="0.00" departDelay="133.00" arrival="512.00" arrivalLane="53i_0" arrivalPos="10.00" arrivalSpeed="9.70" duration="145.00" routeLength="1000.50" waitSteps="11" rerouteNo="0" devices="tripinfo_68" vType="typeNS" vaporized=""/>
    <tripinfo id="69" depart="375.00" departLane="54o_0" departPos="10.00" departSpeed="0.00" departDelay="137.00" arrival="515.00" arrivalLane="53i_0" arrivalPos="10.00" arrivalSpeed="9.77" duration="140.00" routeLength="1000.50" waitSteps="6" rerouteNo="0" devices="tripinfo_69" vType="typeNS" vaporized=""/>
    <tripinfo id="110" depart="389.00" departLane="52o_0" departPos="5.10" departSpeed="0.00" departDelay="0.00" arrival="516.00" arrivalLane="51i_0" arrivalPos="10.00" arrivalSpeed="9.85" duration="127.00" routeLength="1005.40" waitSteps="0" rerouteNo="0" devices="tripinfo_110" vType="typeWE" vaporized=""/>
    <tripinfo id="70" depart="384.00" departLane="54o_0" departPos="10.00" departSpeed="0.00" departDelay="142.00" arrival="519.00" arrivalLane="53i_0" arrivalPos="10.00" arrivalSpeed="9.78" duration="135.00" routeLength="1000.50" waitSteps="0" rerouteNo="0" devices="tripinfo_70" vType="typeNS" vaporized=""/>
    <tripinfo id="71" depart="392.00" departLane="54o_0" departPos="10.00" departSpeed="0.00" departDelay="147.00" arrival="523.00" arrivalLane="53i_0" arrivalPos="10.00" arrivalSpeed="9.85" duration="131.00" routeLength="1000.50" waitSteps="0" rerouteNo="0" devices="tripinfo_71" vType="typeNS" vaporized=""/>
    <tripinfo id="72" depart="400.00" departLane="54o_0" departPos="10.00" departSpeed="0.00" departDelay="148.00" arrival="527.00" arrivalLane="53i_0" arrivalPos="10.00" arrivalSpeed="9.64" duration="127.00" routeLength="1000.50" waitSteps="0" rerouteNo="0" devices="tripinfo_72" vType="typeNS" vaporized=""/>
    <tripinfo id="73" depart="409.00" departLane="54o_0" departPos="10.00" departSpeed="0.00" departDelay="150.00" arrival="530.00" arrivalLane="53i_0" arrivalPos="10.00" arrivalSpeed="9.72" duration="121.00" routeLength="1000.50" waitSteps="0" rerouteNo="0" devices="tripinfo_73" vType="typeNS" vaporized=""/>
    <tripinfo id="74" depart="417.00" departLane="54o_0" departPos="10.00" departSpeed="0.00" departDelay="147.00" arrival="537.00" arrivalLane="53i_0" arrivalPos="10.00" arrivalSpeed="9.64" duration="120.00" routeLength="1000.50" waitSteps="0" rerouteNo="0" devices="tripinfo_74" vType="typeNS" vaporized=""/>
    <tripinfo id="111" depart="393.00" departLane="52o_0" departPos="5.10" departSpeed="0.00" departDelay="2.00" arrival="544.00" arrivalLane="51i_0" arrivalPos="10.00" arrivalSpeed="9.99" duration="151.00" routeLength="1005.40" waitSteps="18" rerouteNo="0" devices="tripinfo_111" vType="typeWE" vaporized=""/>
    <tripinfo id="113" depart="395.00" departLane="51o_0" departPos="5.10" departSpeed="0.00" departDelay="0.00" arrival="545.00" arrivalLane="52i_0" arrivalPos="10.00" arrivalSpeed="9.61" duration="150.00" routeLength="1005.40" waitSteps="15" rerouteNo="0" devices="tripinfo_113" vType="typeWE" vaporized=""/>
    <tripinfo id="75" depart="426.00" departLane="54o_0" departPos="10.00" departSpeed="0.00" departDelay="143.00" arrival="578.00" arrivalLane="53i_0" arrivalPos="10.00" arrivalSpeed="9.69" duration="152.00" routeLength="1000.50" waitSteps="17" rerouteNo="0" devices="tripinfo_75" vType="typeNS" vaporized=""/>
    <tripinfo id="76" depart="434.00" departLane="54o_0" departPos="10.00" departSpeed="0.00" departDelay="144.00" arrival="582.00" arrivalLane="53i_0" arrivalPos="10.00" arrivalSpeed="9.99" duration="148.00" routeLength="1000.50" waitSteps="15" rerouteNo="0" devices="tripinfo_76" vType="typeNS" vaporized=""/>
    <tripinfo id="77" depart="443.00" departLane="54o_0" departPos="10.00" departSpeed="0.00" departDelay="151.00" arrival="586.00" arrivalLane="53i_0" arrivalPos="10.00" arrivalSpeed="9.81" duration="143.00" routeLength="1000.50" waitSteps="8" rerouteNo="0" devices="tripinfo_77" vType="typeNS" vaporized=""/>
    <tripinfo id="79" depart="452.00" departLane="54o_0" departPos="10.00" departSpeed="0.00" departDelay="150.00" arrival="590.00" arrivalLane="53i_0" arrivalPos="10.00" arrivalSpeed="9.96" duration="138.00" routeLength="1000.50" waitSteps="2" rerouteNo="0" devices="tripinfo_79" vType="typeNS" vaporized=""/>
    <tripinfo id="80" depart="460.00" departLane="54o_0" departPos="10.00" departSpeed="0.00" departDelay="151.00" arrival="594.00" arrivalLane="53i_0" arrivalPos="10.00" arrivalSpeed="9.96" duration="134.00" routeLength="1000.50" waitSteps="0" rerouteNo="0" devices="tripinfo_80" vType="typeNS" vaporized=""/>
    <tripinfo id="81" depart="468.00" departLane="54o_0" departPos="10.00" departSpeed="0.00" departDelay="158.00" arrival="597.00" arrivalLane="53i_0" arrivalPos="10.00" arrivalSpeed="9.68" duration="129.00" routeLength="1000.50" waitSteps="0" rerouteNo="0" devices="tripinfo_81" vType="typeNS" vaporized=""/>
    <tripinfo id="82" depart="477.00" departLane="54o_0" departPos="10.00" departSpeed="0.00" departDelay="162.00" arrival="601.00" arrivalLane="53i_0" arrivalPos="10.00" arrivalSpeed="9.83" duration="124.00" routeLength="1000.50" waitSteps="0" rerouteNo="0" devices="tripinfo_82" vType="typeNS" vaporized=""/>
    <tripinfo id="83" depart="485.00" departLane="54o_0" departPos="10.00" departSpeed="0.00" departDelay="167.00" arrival="605.00" arrivalLane="53i_0" arrivalPos="10.00" arrivalSpeed="9.94" duration="120.00" routeLength="1000.50" waitSteps="0" rerouteNo="0" devices="tripinfo_83" vType="typeNS" vaporized=""/>
    <tripinfo id="85" depart="494.00" departLane="54o_0" departPos="10.00" departSpeed="0.00" departDelay="171.00" arrival="614.00" arrivalLane="53i_0" arrivalPos="10.00" arrivalSpeed="9.83" duration="120.00" routeLength="1000.50" waitSteps="0" rerouteNo="0" devices="tripinfo_85" vType="typeNS" vaporized=""/>
    <tripinfo id="133" depart="472.00" departLane="52o_0" departPos="5.10" departSpeed="0.00" departDelay="3.00" arrival="615.00" arrivalLane="51i_0" arrivalPos="10.00" arrivalSpeed="9.77" duration="143.00" routeLength="1005.40" waitSteps="10" rerouteNo="0" devices="tripinfo_133" vType="typeWE" vaporized=""/>
    <tripinfo id="134" depart="488.00" departLane="52o_0" departPos="5.10" departSpeed="0.00" departDelay="12.00" arrival="620.00" arrivalLane="51i_0" arrivalPos="10.00" arrivalSpeed="9.64" duration="132.00" routeLength="1005.40" waitSteps="0" rerouteNo="0" devices="tripinfo_134" vType="typeWE" vaporized=""/>