<?xml version="1.0" encoding="UTF-8"?>

<!-- generated on Mon Nov  4 14:24:22 2013 by SUMO sumo Version 0.17.1
<?xml version="1.0" encoding="UTF-8"?>

<configuration xmlns:xsi="http://www.w3.org/2001/XMLSchema-instance" xsi:noNamespaceSchemaLocation="http://sumo.sf.net/xsd/sumoConfiguration.xsd">

    <input>
        <net-file value="road_map/test.net.xml"/>
        <route-files value="road_map/test.rou.xml"/>
        <additional-files value="road_map/e1.add.xml"/>
    </input>

    <output>
        <tripinfo-output value="road_map/tripinfo.xml"/>
    </output>

    <time>
        <begin value="0"/>
    </time>

    <report>
        <verbose value="true"/>
        <no-step-log value="true"/>
    </report>

</configuration>
-->

<tripinfos>
    <tripinfo id="52" depart="46.00" departLane="28_0" departPos="7.77" departSpeed="0.00" departDelay="-0.41" arrival="103.00" arrivalLane="28_0" arrivalPos="195.25" arrivalSpeed="4.09" duration="57.00" routeLength="187.48" waitSteps="0" rerouteNo="0" devices="tripinfo_52" vType="7" vaporized=""/>
    <tripinfo id="53" depart="60.00" departLane="47_0" departPos="9.11" departSpeed="0.00" departDelay="-0.13" arrival="112.00" arrivalLane="47_0" arrivalPos="195.25" arrivalSpeed="3.69" duration="52.00" routeLength="186.14" waitSteps="0" rerouteNo="0" devices="tripinfo_53" vType="4" vaporized=""/>
    <tripinfo id="60" depart="66.00" departLane="47_0" departPos="7.77" departSpeed="0.00" departDelay="5.17" arrival="121.00" arrivalLane="47_0" arrivalPos="195.25" arrivalSpeed="3.95" duration="55.00" routeLength="187.48" waitSteps="0" rerouteNo="0" devices="tripinfo_60" vType="7" vaporized=""/>
    <tripinfo id="48" depart="13.00" departLane="31_0" departPos="5.21" departSpeed="0.00" departDelay="-0.58" arrival="170.00" arrivalLane="31_0" arrivalPos="195.25" arrivalSpeed="1.32" duration="157.00" routeLength="190.04" waitSteps="0" rerouteNo="0" devices="tripinfo_48" vType="9" vaporized=""/>
    <tripinfo id="10" depart="90.00" departLane="1_0" departPos="5.09" departSpeed="0.00" departDelay="-0.86" arrival="225.00" arrivalLane="1_0" arrivalPos="195.25" arrivalSpeed="1.46" duration="135.00" routeLength="190.16" waitSteps="0" rerouteNo="0" devices="tripinfo_10" vType="6" vaporized=""/>
    <tripinfo id="44" depart="99.00" departLane="1_0" departPos="5.09" departSpeed="0.00" departDelay="0.53" arrival="237.00" arrivalLane="1_0" arrivalPos="195.25" arrivalSpeed="1.39" duration="138.00" routeLength="190.16" waitSteps="1" rerouteNo="0" devices="tripinfo_44" vType="6" vaporized=""/>
    <tripinfo id="65" depart="197.00" departLane="31_0" departPos="9.11" departSpeed="0.00" departDelay="-0.02" arrival="249.00" arrivalLane="31_0" arrivalPos="195.25" arrivalSpeed="3.69" duration="52.00" routeLength="186.14" waitSteps="0" rerouteNo="0" devices="tripinfo_65" vType="4" vaporized=""/>
    <tripinfo id="30" depart="46.00" departLane="8_0" departPos="9.42" departSpeed="0.00" departDelay="-0.06" arrival="259.00" arrivalLane="8_0" arrivalPos="195.25" arrivalSpeed="1.42" duration="213.00" routeLength="185.83" waitSteps="0" rerouteNo="0" devices="tripinfo_30" vType="2" vaporized=""/>
    <tripinfo id="80" depart="62.00" departLane="8_0" departPos="3.83" departSpeed="0.00" departDelay="-0.89" arrival="268.00" arrivalLane="8_0" arrivalPos="195.25" arrivalSpeed="2.69" duration="206.00" routeLength="191.42" waitSteps="0" rerouteNo="0" devices="tripinfo_80" vType="5" vaporized=""/>
    <tripinfo id="55" depart="121.00" departLane="48_0" departPos="7.77" departSpeed="0.00" departDelay="-0.62" arrival="295.00" arrivalLane="11_0" arrivalPos="195.25" arrivalSpeed="3.83" duration="174.00" routeLength="377.98" waitSteps="52" rerouteNo="0" devices="tripinfo_55" vType="7" vaporized=""/>
    <tripinfo id="41" depart="164.00" departLane="72_0" departPos="5.09" departSpeed="0.00" departDelay="-0.72" arrival="296.00" arrivalLane="72_0" arrivalPos="195.25" arrivalSpeed="1.41" duration="132.00" routeLength="190.16" waitSteps="0" rerouteNo="0" devices="tripinfo_41" vType="6" vaporized=""/>
    <tripinfo id="24" depart="150.00" departLane="21_0" departPos="5.21" departSpeed="0.00" departDelay="-0.68" arrival="306.00" arrivalLane="21_0" arrivalPos="195.25" arrivalSpeed="1.12" duration="156.00" routeLength="190.04" waitSteps="0" rerouteNo="0" devices="tripinfo_24" vType="9" vaporized=""/>
    <tripinfo id="71" depart="104.00" departLane="16_0" departPos="6.71" departSpeed="0.00" departDelay="32.09" arrival="337.00" arrivalLane="18_0" arrivalPos="195.25" arrivalSpeed="2.02" duration="233.00" routeLength="379.04" waitSteps="0" rerouteNo="0" devices="tripinfo_71" vType="1" vaporized=""/>
    <tripinfo id="21" depart="289.00" departLane="72_0" departPos="7.77" departSpeed="0.00" departDelay="-0.95" arrival="346.00" arrivalLane="72_0" arrivalPos="195.25" arrivalSpeed="3.86" duration="57.00" routeLength="187.48" waitSteps="0" rerouteNo="0" devices="tripinfo_21" vType="7" vaporized=""/>
    <tripinfo id="15" depart="238.00" departLane="41_0" departPos="6.71" departSpeed="0.00" departDelay="-0.45" arrival="351.00" arrivalLane="41_0" arrivalPos="195.25" arrivalSpeed="2.00" duration="113.00" routeLength="188.54" waitSteps="0" rerouteNo="0" devices="tripinfo_15" vType="1" vaporized=""/>
    <tripinfo id="23" depart="235.00" departLane="57_0" departPos="7.77" departSpeed="0.00" departDelay="-0.94" arrival="353.00" arrivalLane="11_0" arrivalPos="195.25" arrivalSpeed="4.09" duration="118.00" routeLength="377.98" waitSteps="0" rerouteNo="0" devices="tripinfo_23" vType="7" vaporized=""/>
    <tripinfo id="75" depart="241.00" departLane="1_0" departPos="5.47" departSpeed="0.00" departDelay="-0.79" arrival="393.00" arrivalLane="1_0" arrivalPos="195.25" arrivalSpeed="1.34" duration="152.00" routeLength="189.78" waitSteps="0" rerouteNo="0" devices="tripinfo_75" vType="3" vaporized=""/>
    <tripinfo id="77" depart="184.00" departLane="8_0" departPos="9.42" departSpeed="0.00" departDelay="-0.21" arrival="398.00" arrivalLane="8_0" arrivalPos="195.25" arrivalSpeed="1.40" duration="214.00" routeLength="185.83" waitSteps="0" rerouteNo="0" devices="tripinfo_77" vType="2" vaporized=""/>
    <tripinfo id="4" depart="102.00" departLane="55_0" departPos="7.77" departSpeed="0.00" departDelay="-0.62" arrival="423.00" arrivalLane="45_0" arrivalPos="195.25" arrivalSpeed="3.86" duration="321.00" routeLength="568.48" waitSteps="134" rerouteNo="0" devices="tripinfo_4" vType="7" vaporized=""/>
    <tripinfo id="78" depart="92.00" departLane="9_0" departPos="7.77" departSpeed="0.00" departDelay="-0.12" arrival="431.00" arrivalLane="45_0" arrivalPos="195.25" arrivalSpeed="3.86" duration="339.00" routeLength="573.23" waitSteps="152" rerouteNo="0" devices="tripinfo_78" vType="7" vaporized=""/>
    <tripinfo id="27" depart="282.00" departLane="43_0" departPos="5.47" departSpeed="0.00" departDelay="-0.56" arrival="437.00" arrivalLane="43_0" arrivalPos="195.25" arrivalSpeed="1.18" duration="155.00" routeLength="189.78" waitSteps="0" rerouteNo="0" devices="tripinfo_27" vType="3" vaporized=""/>
    <tripinfo id="95" depart="40.00" departLane="73_0" departPos="9.42" departSpeed="0.00" departDelay="-0.66" arrival="490.00" arrivalLane="31_0" arrivalPos="195.25" arrivalSpeed="0.68" duration="450.00" routeLength="381.08" waitSteps="0" rerouteNo="0" devices="tripinfo_95" vType="2" vaporized=""/>
    <tripinfo id="73" depart="14.00" departLane="24_0" departPos="7.77" departSpeed="0.00" departDelay="-0.19" arrival="558.00" arrivalLane="28_0" arrivalPos="195.25" arrivalSpeed="3.89" duration="544.00" routeLength="568.48" waitSteps="128" rerouteNo="0" devices="tripinfo_73" vType="7" vaporized=""/>
    <tripinfo id="42" depart="280.00" departLane="57_0" departPos="5.47" departSpeed="0.00" departDelay="-0.42" arrival="630.00" arrivalLane="11_0" arrivalPos="195.25" arrivalSpeed="1.34" duration="350.00" routeLength="380.28" waitSteps="34" rerouteNo="0" devices="tripinfo_42" vType="3" vaporized=""/>
    <tripinfo id="31" depart="274.00" departLane="64_0" departPos="5.47" departSpeed="0.00" departDelay="-0.65" arrival="669.00" arrivalLane="31_0" arrivalPos="195.25" arrivalSpeed="1.25" duration="395.00" routeLength="380.28" waitSteps="84" rerouteNo="0" devices="tripinfo_31" vType="3" vaporized=""/>
    <tripinfo id="5" depart="480.00" departLane="13_0" departPos="9.11" departSpeed="0.00" departDelay="273.99" arrival="673.00" arrivalLane="11_0" arrivalPos="195.25" arrivalSpeed="3.71" duration="193.00" routeLength="376.64" waitSteps="53" rerouteNo="0" devices="tripinfo_5" vType="4" vaporized=""/>
    <tripinfo id="58" depart="145.00" departLane="73_0" departPos="5.21" departSpeed="0.00" departDelay="-0.22" arrival="687.00" arrivalLane="31_0" arrivalPos="195.25" arrivalSpeed="1.37" duration="542.00" routeLength="385.29" waitSteps="212" rerouteNo="0" devices="tripinfo_58" vType="9" vaporized=""/>
    <tripinfo id="99" depart="121.00" departLane="53_0" departPos="5.21" departSpeed="0.00" departDelay="-0.79" arrival="690.00" arrivalLane="43_0" arrivalPos="195.25" arrivalSpeed="1.36" duration="569.00" routeLength="571.04" waitSteps="82" rerouteNo="0" devices="tripinfo_99" vType="9" vaporized=""/>
    <tripinfo id="9" depart="233.00" departLane="73_0" departPos="6.71" departSpeed="0.00" departDelay="-0.05" arrival="694.00" arrivalLane="31_0" arrivalPos="195.25" arrivalSpeed="1.77" duration="461.00" routeLength="383.79" waitSteps="171" rerouteNo="0" devices="tripinfo_9" vType="1" vaporized=""/>
    <tripinfo id="37" depart="320.00" departLane="6_0" departPos="5.21" departSpeed="0.00" departDelay="-0.19" arrival="705.00" arrivalLane="8_0" arrivalPos="195.25" arrivalSpeed="1.35" duration="385.00" routeLength="380.54" waitSteps="59" rerouteNo="0" devices="tripinfo_37" vType="9" vaporized=""/>
    <tripinfo id="96" depart="117.00" departLane="4_0" departPos="9.11" departSpeed="0.00" departDelay="22.82" arrival="709.00" arrivalLane="8_0" arrivalPos="195.25" arrivalSpeed="3.72" duration="592.00" routeLength="567.14" waitSteps="251" rerouteNo="0" devices="tripinfo_96" vType="4" vaporized=""/>
    <tripinfo id="98" depart="203.00" departLane="46_0" departPos="7.77" departSpeed="0.00" departDelay="-0.40" arrival="784.00" arrivalLane="45_0" arrivalPos="195.25" arrivalSpeed="4.06" duration="581.00" routeLength="573.23" waitSteps="397" rerouteNo="0" devices="tripinfo_98" vType="7" vaporized=""/>
    <tripinfo id="40" depart="147.00" departLane="16_0" departPos="9.42" departSpeed="0.00" departDelay="-0.31" arrival="818.00" arrivalLane="18_0" arrivalPos="195.25" arrivalSpeed="1.07" duration="671.00" routeLength="376.33" waitSteps="227" rerouteNo="0" devices="tripinfo_40" vType="2" vaporized=""/>
    <tripinfo id="26" depart="261.00" departLane="16_0" departPos="5.09" departSpeed="0.00" departDelay="-0.56" arrival="829.00" arrivalLane="18_0" arrivalPos="195.25" arrivalSpeed="1.75" duration="568.00" routeLength="380.66" waitSteps="199" rerouteNo="0" devices="tripinfo_26" vType="6" vaporized=""/>
    <tripinfo id="70" depart="41.00" departLane="10_0" departPos="7.77" departSpeed="0.00" departDelay="-0.04" arrival="836.00" arrivalLane="18_0" arrivalPos="195.25" arrivalSpeed="3.68" duration="795.00" routeLength="954.23" waitSteps="278" rerouteNo="0" devices="tripinfo_70" vType="7" vaporized=""/>
    <tripinfo id="83" depart="306.00" departLane="4_0" departPos="7.77" departSpeed="0.00" departDelay="-0.72" arrival="857.00" arrivalLane="8_0" arrivalPos="195.25" arrivalSpeed="3.82" duration="551.00" routeLength="568.48" waitSteps="297" rerouteNo="0" devices="tripinfo_83" vType="7" vaporized=""/>
    <tripinfo id="82" depart="34.00" departLane="59_0" departPos="5.47" departSpeed="0.00" departDelay="-0.20" arrival="869.00" arrivalLane="1_0" arrivalPos="195.25" arrivalSpeed="1.33" duration="835.00" routeLength="761.28" waitSteps="199" rerouteNo="0" devices="tripinfo_82" vType="3" vaporized=""/>
    <tripinfo id="43" depart="63.00" departLane="50_0" departPos="3.83" departSpeed="0.00" departDelay="-0.66" arrival="877.00" arrivalLane="1_0" arrivalPos="195.25" arrivalSpeed="3.18" duration="814.00" routeLength="762.92" waitSteps="394" rerouteNo="0" devices="tripinfo_43" vType="5" vaporized=""/>
    <tripinfo id="51" depart="117.00" departLane="50_0" departPos="7.77" departSpeed="0.00" departDelay="27.42" arrival="884.00" arrivalLane="1_0" arrivalPos="195.25" arrivalSpeed="3.88" duration="767.00" routeLength="758.98" waitSteps="351" rerouteNo="0" devices="tripinfo_51" vType="7" vaporized=""/>
    <tripinfo id="85" depart="316.00" departLane="50_0" departPos="9.11" departSpeed="0.00" departDelay="-0.25" arrival="889.00" arrivalLane="1_0" arrivalPos="195.25" arrivalSpeed="3.72" duration="573.00" routeLength="757.64" waitSteps="169" rerouteNo="0" devices="tripinfo_85" vType="4" vaporized=""/>
    <tripinfo id="12" depart="135.00" departLane="34_0" departPos="5.09" departSpeed="0.00" departDelay="-0.53" arrival="902.00" arrivalLane="38_0" arrivalPos="195.25" arrivalSpeed="1.69" duration="767.00" routeLength="571.16" waitSteps="360" rerouteNo="0" devices="tripinfo_12" vType="6" vaporized=""/>
    <tripinfo id="66" depart="468.00" departLane="13_0" departPos="3.83" departSpeed="0.00" departDelay="217.73" arrival="914.00" arrivalLane="11_0" arrivalPos="195.25" arrivalSpeed="3.39" duration="446.00" routeLength="381.92" waitSteps="245" rerouteNo="0" devices="tripinfo_66" vType="5" vaporized=""/>
    <tripinfo id="3" depart="491.00" departLane="13_0" departPos="9.11" departSpeed="0.00" departDelay="168.98" arrival="923.00" arrivalLane="11_0" arrivalPos="195.25" arrivalSpeed="3.71" duration="432.00" routeLength="376.64" waitSteps="233" rerouteNo="0" devices="tripinfo_3" vType="4" vaporized=""/>
    <tripinfo id="91" depart="212.00" departLane="33_0" departPos="9.42" departSpeed="0.00" departDelay="-0.67" arrival="943.00" arrivalLane="31_0" arrivalPos="195.25" arrivalSpeed="1.30" duration="731.00" routeLength="376.33" waitSteps="303" rerouteNo="0" devices="tripinfo_91" vType="2" vaporized=""/>
    <tripinfo id="17" depart="38.00" departLane="24_0" departPos="5.09" departSpeed="0.00" departDelay="-0.92" arrival="972.00" arrivalLane="28_0" arrivalPos="195.25" arrivalSpeed="1.50" duration="934.00" routeLength="571.16" waitSteps="254" rerouteNo="0" devices="tripinfo_17" vType="6" vaporized=""/>
    <tripinfo id="20" depart="53.00" departLane="24_0" departPos="5.21" departSpeed="0.00" departDelay="-0.97" arrival="1015.00" arrivalLane="28_0" arrivalPos="195.25" arrivalSpeed="1.10" duration="962.00" routeLength="571.04" waitSteps="370" rerouteNo="0" devices="tripinfo_20" vType="9" vaporized=""/>
    <tripinfo id="84" depart="445.00" departLane="14_0" departPos="5.09" departSpeed="0.00" departDelay="316.29" arrival="1106.00" arrivalLane="18_0" arrivalPos="195.25" arrivalSpeed="1.92" duration="661.00" routeLength="571.16" waitSteps="240" rerouteNo="0" devices="tripinfo_84" vType="6" vaporized=""/>
    <tripinfo id="45" depart="456.00" departLane="14_0" departPos="7.77" departSpeed="0.00" departDelay="180.79" arrival="1114.00" arrivalLane="18_0" arrivalPos="195.25" arrivalSpeed="3.34" duration="658.00" routeLength="568.48" waitSteps="233" rerouteNo="0" devices="tripinfo_45" vType="7" vaporized=""/>
    <tripinfo id="38" depart="137.00" departLane="69_0" departPos="3.83" departSpeed="0.00" departDelay="-0.40" arrival="1235.00" arrivalLane="1_0" arrivalPos="195.25" arrivalSpeed="3.10" duration="1098.00" routeLength="1143.92" waitSteps="607" rerouteNo="0" devices="tripinfo_38" vType="5" vaporized=""/>
    <tripinfo id="36" depart="210.00" departLane="69_0" departPos="3.83" departSpeed="0.00" departDelay="-0.09" arrival="1255.00" arrivalLane="1_0" arrivalPos="195.25" arrivalSpeed="3.48" duration="1045.00" routeLength="1143.92" waitSteps="493" rerouteNo="0" devices="tripinfo_36" vType="5" vaporized=""/>
    <tripinfo id="68" depart="218.00" departLane="22_0" departPos="5.09" departSpeed="0.00" departDelay="-0.03" arrival="1322.00" arrivalLane="28_0" arrivalPos="195.25" arrivalSpeed="1.11" duration="1104.00" routeLength="761.66" waitSteps="350" rerouteNo="0" devices="tripinfo_68" vType="6" vaporized=""/>
    <tripinfo id="59" depart="47.00" departLane="58_0" departPos="5.47" departSpeed="0.00" departDelay="-0.23" arrival="1328.00" arrivalLane="11_0" arrivalPos="195.25" arrivalSpeed="1.21" duration="1281.00" routeLength="761.28" waitSteps="649" rerouteNo="0" devices="tripinfo_59" vType="3" vaporized=""/>
    <tripinfo id="89" depart="40.00" departLane="63_0" departPos="5.09" departSpeed="0.00" departDelay="-0.70" arrival="1347.00" arrivalLane="43_0" arrivalPos="195.25" arrivalSpeed="2.06" duration="1307.00" routeLength="952.16" waitSteps="571" rerouteNo="0" devices="tripinfo_89" vType="6" vaporized=""/>
    <tripinfo id="34" depart="119.00" departLane="63_0" departPos="5.47" departSpeed="0.00" departDelay="-0.27" arrival="1375.00" arrivalLane="43_0" arrivalPos="195.25" arrivalSpeed="1.18" duration="1256.00" routeLength="951.78" waitSteps="430" rerouteNo="0" devices="tripinfo_34" vType="3" vaporized=""/>
    <tripinfo id="49" depart="5.00" departLane="30_0" departPos="9.42" departSpeed="0.00" departDelay="-0.07" arrival="1868.00" arrivalLane="38_0" arrivalPos="195.25" arrivalSpeed="1.12" duration="1863.00" routeLength="952.58" waitSteps="732" rerouteNo="0" devices="tripinfo_49" vType="2" vaporized=""/>
    <tripinfo id="62" depart="192.00" departLane="21_0" departPos="2.32" departSpeed="0.00" departDelay="-0.50" arrival="1870.00" arrivalLane="21_0" arrivalPos="195.25" arrivalSpeed="0.15" duration="1678.00" routeLength="192.93" waitSteps="537" rerouteNo="0" devices="tripinfo_62" vType="8" vaporized=""/>
    <tripinfo id="1" depart="213.00" departLane="30_0" departPos="6.71" departSpeed="0.00" departDelay="-0.85" arrival="1920.00" arrivalLane="38_0" arrivalPos="195.25" arrivalSpeed="1.62" duration="1707.00" routeLength="955.29" waitSteps="1105" rerouteNo="0" devices="tripinfo_1" vType="1" vaporized=""/>
    <tripinfo id="19" depart="290.00" departLane="21_0" departPos="2.32" departSpeed="0.00" departDelay="34.01" arrival="1971.00" arrivalLane="21_0" arrivalPos="195.25" arrivalSpeed="0.13" duration="1681.00" routeLength="192.93" waitSteps="537" rerouteNo="0" devices="tripinfo_19" vType="8" vaporized=""/>
    <tripinfo id="86" depart="65.00" departLane="65_0" departPos="6.71" departSpeed="0.00" departDelay="-0.83" arrival="1976.00" arrivalLane="21_0" arrivalPos="195.25" arrivalSpeed="2.03" duration="1911.00" routeLength="379.04" waitSteps="919" rerouteNo="0" devices="tripinfo_86" vType="1" vaporized=""/>
    <tripinfo id="81" depart="288.00" departLane="23_0" departPos="6.71" departSpeed="0.00" departDelay="-0.57" arrival="1985.00" arrivalLane="21_0" arrivalPos="195.25" arrivalSpeed="1.87" duration="1697.00" routeLength="379.04" waitSteps="816" rerouteNo="0" devices="tripinfo_81" vType="1" vaporized=""/>
    <tripinfo id="97" depart="244.00" departLane="56_0" departPos="5.47" departSpeed="0.00" departDelay="-0.05" arrival="1996.00" arrivalLane="21_0" arrivalPos="195.25" arrivalSpeed="1.37" duration="1752.00" routeLength="380.28" waitSteps="840" rerouteNo="0" devices="tripinfo_97" vType="3" vaporized=""/>
    <tripinfo id="69" depart="37.00" departLane="66_0" departPos="9.42" departSpeed="0.00" departDelay="-0.77" arrival="2015.00" arrivalLane="21_0" arrivalPos="195.25" arrivalSpeed="1.18" duration="1978.00" routeLength="757.33" waitSteps="810" rerouteNo="0" devices="tripinfo_69" vType="2" vaporized=""/>
    <tripinfo id="50" depart="68.00" departLane="66_0" departPos="5.47" departSpeed="0.00" departDelay="-0.61" arrival="2025.00" arrivalLane="21_0" arrivalPos="195.25" arrivalSpeed="1.24" duration="1957.00" routeLength="761.28" waitSteps="1114" rerouteNo="0" devices="tripinfo_50" vType="3" vaporized=""/>
    <tripinfo id="14" depart="142.00" departLane="66_0" departPos="7.77" departSpeed="0.00" departDelay="-0.97" arrival="2034.00" arrivalLane="21_0" arrivalPos="195.25" arrivalSpeed="3.18" duration="1892.00" routeLength="758.98" waitSteps="1285" rerouteNo="0" devices="tripinfo_14" vType="7" vaporized=""/>
    <tripinfo id="76" depart="240.00" departLane="66_0" departPos="5.21" departSpeed="0.00" departDelay="-0.85" arrival="2109.00" arrivalLane="21_0" arrivalPos="195.25" arrivalSpeed="1.05" duration="1869.00" routeLength="761.54" waitSteps="1222" rerouteNo="0" devices="tripinfo_76" vType="9" vaporized=""/>
    <tripinfo id="90" depart="339.00" departLane="5_0" departPos="7.77" departSpeed="0.00" departDelay="-0.29" arrival="3093.00" arrivalLane="41_0" arrivalPos="195.25" arrivalSpeed="3.77" duration="2754.00" routeLength="568.48" waitSteps="2402" rerouteNo="0" devices="tripinfo_90" vType="7" vaporized=""/>
    <tripinfo id="2" depart="216.00" departLane="69_0" departPos="9.42" departSpeed="0.00" departDelay="4.72" arrival="3761.00" arrivalLane="1_0" arrivalPos="195.25" arrivalSpeed="0.93" duration="3545.00" routeLength="1138.33" waitSteps="1605" rerouteNo="0" devices="tripinfo_2" vType="2" vaporized=""/>
    <tripinfo id="0" depart="44.00" departLane="51_0" departPos="3.83" departSpeed="0.00" departDelay="-0.59" arrival="3763.00" arrivalLane="41_0" arrivalPos="195.25" arrivalSpeed="3.47" duration="3719.00" routeLength="572.42" waitSteps="3262" rerouteNo="0" devices="tripinfo_0" vType="5" vaporized=""/>
    <tripinfo id="79" depart="106.00" departLane="79_0" departPos="5.47" departSpeed="0.00" departDelay="-0.57" arrival="3771.00" arrivalLane="1_0" arrivalPos="195.25" arrivalSpeed="1.30" duration="3665.00" routeLength="1528.03" waitSteps="1670" rerouteNo="0" devices="tripinfo_79" vType="3" vaporized=""/>
    <tripinfo id="22" depart="237.00" departLane="48_0" departPos="2.32" departSpeed="0.00" departDelay="-0.79" arrival="3825.00" arrivalLane="11_0" arrivalPos="195.25" arrivalSpeed="0.15" duration="3588.00" routeLength="383.43" waitSteps="1270" rerouteNo="0" devices="tripinfo_22" vType="8" vaporized=""/>
    <tripinfo id="94" depart="457.00" departLane="67_0" departPos="7.77" departSpeed="0.00" departDelay="106.56" arrival="3833.00" arrivalLane="11_0" arrivalPos="195.25" arrivalSpeed="2.59" duration="3376.00" routeLength="758.98" waitSteps="1688" rerouteNo="0" devices="tripinfo_94" vType="7" vaporized=""/>
    <tripinfo id="72" depart="72.00" departLane="42_0" departPos="5.47" departSpeed="0.00" departDelay="-0.60" arrival="4243.00" arrivalLane="41_0" arrivalPos="195.25" arrivalSpeed="1.35" duration="4171.00" routeLength="575.53" waitSteps="3571" rerouteNo="0" devices="tripinfo_72" vType="3" vaporized=""/>
    <tripinfo id="61" depart="13.00" departLane="52_0" departPos="9.11" departSpeed="0.00" departDelay="-0.45" arrival="4501.00" arrivalLane="41_0" arrivalPos="195.25" arrivalSpeed="3.73" duration="4488.00" routeLength="948.14" waitSteps="3995" rerouteNo="0" devices="tripinfo_61" vType="4" vaporized=""/>
    <tripinfo id="64" depart="248.00" departLane="2_0" departPos="5.09" departSpeed="0.00" departDelay="-0.31" arrival="4649.00" arrivalLane="8_0" arrivalPos="195.25" arrivalSpeed="1.37" duration="4401.00" routeLength="761.66" waitSteps="3681" rerouteNo="0" devices="tripinfo_64" vType="6" vaporized=""/>
    <tripinfo id="46" depart="31.00" departLane="61_0" departPos="3.83" departSpeed="0.00" departDelay="-0.69" arrival="5173.00" arrivalLane="41_0" arrivalPos="195.25" arrivalSpeed="3.11" duration="5142.00" routeLength="953.42" waitSteps="4459" rerouteNo="0" devices="tripinfo_46" vType="5" vaporized=""/>
    <tripinfo id="39" depart="307.00" departLane="5_0" departPos="5.47" departSpeed="0.00" departDelay="-0.53" arrival="5657.00" arrivalLane="41_0" arrivalPos="195.25" arrivalSpeed="1.16" duration="5350.00" routeLength="570.78" waitSteps="4797" rerouteNo="0" devices="tripinfo_39" vType="3" vaporized=""/>
    <tripinfo id="54" depart="104.00" departLane="24_0" departPos="2.32" departSpeed="0.00" departDelay="-0.70" arrival="5663.00" arrivalLane="28_0" arrivalPos="195.25" arrivalSpeed="0.15" duration="5559.00" routeLength="573.93" waitSteps="1955" rerouteNo="0" devices="tripinfo_54" vType="8" vaporized=""/>
    <tripinfo id="7" depart="147.00" departLane="22_0" departPos="7.77" departSpeed="0.00" departDelay="-0.42" arrival="5673.00" arrivalLane="28_0" arrivalPos="195.25" arrivalSpeed="2.50" duration="5526.00" routeLength="758.98" waitSteps="2883" rerouteNo="0" devices="tripinfo_7" vType="7" vaporized=""/>
    <tripinfo id="35" depart="310.00" departLane="24_0" departPos="5.47" departSpeed="0.00" departDelay="3.56" arrival="5684.00" arrivalLane="28_0" arrivalPos="195.25" arrivalSpeed="1.35" duration="5374.00" routeLength="570.78" waitSteps="2630" rerouteNo="0" devices="tripinfo_35" vType="3" vaporized=""/>
    <tripinfo id="13" depart="168.00" departLane="20_0" departPos="9.11" departSpeed="0.00" departDelay="-0.01" arrival="5688.00" arrivalLane="28_0" arrivalPos="195.25" arrivalSpeed="3.69" duration="5520.00" routeLength="952.89" waitSteps="2939" rerouteNo="0" devices="tripinfo_13" vType="4" vaporized=""/>
    <tripinfo id="67" depart="703.00" departLane="24_0" departPos="5.09" departSpeed="0.00" departDelay="464.80" arrival="5706.00" arrivalLane="28_0" arrivalPos="195.25" arrivalSpeed="1.75" duration="5003.00" routeLength="571.16" waitSteps="2951" rerouteNo="0" devices="tripinfo_67" vType="6" vaporized=""/>
    <tripinfo id="47" depart="445.00" departLane="51_0" departPos="5.09" departSpeed="0.00" departDelay="299.78" arrival="6294.00" arrivalLane="41_0" arrivalPos="195.25" arrivalSpeed="1.68" duration="5849.00" routeLength="571.16" waitSteps="5293" rerouteNo="0" devices="tripinfo_47" vType="6" vaporized=""/>
    <tripinfo id="33" depart="267.00" departLane="29_0" departPos="6.71" departSpeed="0.00" departDelay="-0.92" arrival="6306.00" arrivalLane="41_0" arrivalPos="195.25" arrivalSpeed="1.37" duration="6039.00" routeLength="1336.29" waitSteps="4843" rerouteNo="0" devices="tripinfo_33" vType="1" vaporized=""/>
    <tripinfo id="74" depart="335.00" departLane="17_0" departPos="3.83" departSpeed="0.00" departDelay="-0.92" arrival="6934.00" arrivalLane="41_0" arrivalPos="195.25" arrivalSpeed="2.90" duration="6599.00" routeLength="953.42" waitSteps="6056" rerouteNo="0" devices="tripinfo_74" vType="5" vaporized=""/>
    <tripinfo id="93" depart="10.00" departLane="29_0" departPos="9.11" departSpeed="0.00" departDelay="-0.37" arrival="6942.00" arrivalLane="41_0" arrivalPos="195.25" arrivalSpeed="3.70" duration="6932.00" routeLength="1333.89" waitSteps="5895" rerouteNo="0" devices="tripinfo_93" vType="4" vaporized=""/>
    <tripinfo id="57" depart="67.00" departLane="29_0" departPos="5.21" departSpeed="0.00" departDelay="-0.83" arrival="7054.00" arrivalLane="41_0" arrivalPos="195.25" arrivalSpeed="1.13" duration="6987.00" routeLength="1337.79" waitSteps="5704" rerouteNo="0" devices="tripinfo_57" vType="9" vaporized=""/>
    <tripinfo id="29" depart="315.00" departLane="67_0" departPos="2.32" departSpeed="0.00" departDelay="-0.54" arrival="7584.00" arrivalLane="11_0" arrivalPos="195.25" arrivalSpeed="0.08" duration="7269.00" routeLength="764.43" waitSteps="2541" rerouteNo="0" devices="tripinfo_29" vType="8" vaporized=""/>
    <tripinfo id="87" depart="97.00" departLane="77_0" departPos="9.11" departSpeed="0.00" departDelay="-0.86" arrival="7587.00" arrivalLane="11_0" arrivalPos="195.25" arrivalSpeed="3.71" duration="7490.00" routeLength="1143.39" waitSteps="3168" rerouteNo="0" devices="tripinfo_87" vType="4" vaporized=""/>
    <tripinfo id="6" depart="334.00" departLane="68_0" departPos="5.21" departSpeed="0.00" departDelay="100.94" arrival="7604.00" arrivalLane="11_0" arrivalPos="195.25" arrivalSpeed="1.26" duration="7270.00" routeLength="1142.54" waitSteps="3113" rerouteNo="0" devices="tripinfo_6" vType="9" vaporized=""/>
    <tripinfo id="88" depart="344.00" departLane="68_0" departPos="9.11" departSpeed="0.00" departDelay="56.04" arrival="7607.00" arrivalLane="11_0" arrivalPos="195.25" arrivalSpeed="3.71" duration="7263.00" routeLength="1138.64" waitSteps="3043" rerouteNo="0" devices="tripinfo_88" vType="4" vaporized=""/>
    <tripinfo id="25" depart="1942.00" departLane="3_0" departPos="9.11" departSpeed="0.00" departDelay="1687.10" arrival="7637.00" arrivalLane="1_0" arrivalPos="195.25" arrivalSpeed="3.69" duration="5695.00" routeLength="376.64" waitSteps="5241" rerouteNo="0" devices="tripinfo_25" vType="4" vaporized=""/>
    <tripinfo id="8" depart="381.00" departLane="62_0" departPos="6.71" departSpeed="0.00" departDelay="104.67" arrival="8399.00" arrivalLane="41_0" arrivalPos="195.25" arrivalSpeed="2.04" duration="8018.00" routeLength="1331.54" waitSteps="6762" rerouteNo="0" devices="tripinfo_8" vType="1" vaporized=""/>
    <tripinfo id="11" depart="348.00" departLane="25_0" departPos="2.32" departSpeed="0.00" departDelay="-0.13" arrival="8757.00" arrivalLane="11_0" arrivalPos="195.25" arrivalSpeed="0.10" duration="8409.00" routeLength="764.43" waitSteps="3829" rerouteNo="0" devices="tripinfo_11" vType="8" vaporized=""/>
    <tripinfo id="92" depart="65.00" departLane="54_0" departPos="2.32" departSpeed="0.00" departDelay="-0.25" arrival="9704.00" arrivalLane="43_0" arrivalPos="195.25" arrivalSpeed="0.13" duration="9639.00" routeLength="954.93" waitSteps="3904" rerouteNo="0" devices="tripinfo_92" vType="8" vaporized=""/>
    <tripinfo id="32" depart="163.00" departLane="54_0" departPos="9.42" departSpeed="0.00" departDelay="42.17" arrival="9709.00" arrivalLane="43_0" arrivalPos="195.25" arrivalSpeed="0.72" duration="9546.00" routeLength="947.83" waitSteps="5308" rerouteNo="0" devices="tripinfo_32" vType="2" vaporized=""/>
    <tripinfo id="28" depart="273.00" departLane="54_0" departPos="5.21" departSpeed="0.00" departDelay="90.37" arrival="9724.00" arrivalLane="43_0" arrivalPos="195.25" arrivalSpeed="1.24" duration="9451.00" routeLength="952.04" waitSteps="5371" rerouteNo="0" devices="tripinfo_28" vType="9" vaporized=""/>