<?xml version="1.0" encoding="UTF-8"?>

<!-- generated on Sun 27 Oct 2013 05:23:57 PM PDT by SUMO gui Version 0.17.1
<?xml version="1.0" encoding="UTF-8"?>

<configuration xmlns:xsi="http://www.w3.org/2001/XMLSchema-instance" xsi:noNamespaceSchemaLocation="http://sumo.sf.net/xsd/sumo-gui.exeConfiguration.xsd">

    <input>
        <net-file value="data/cross.net.xml"/>
        <route-files value="data/cross.rou.xml"/>
        <additional-files value="data/cross.det.xml"/>
    </input>

    <output>
        <tripinfo-output value="tripinfo.xml"/>
    </output>

    <time>
        <begin value="0"/>
    </time>

    <report>
        <verbose value="true"/>
        <no-step-log value="true"/>
    </report>

    <traci_server>
        <remote-port value="8813"/>
    </traci_server>

</configuration>
-->

<detector xmlns:xsi="http://www.w3.org/2001/XMLSchema-instance" xsi:noNamespaceSchemaLocation="http://sumo.sf.net/xsd/det_e1_file.xsd">
   <interval begin="0.00" end="30.00" id="0" nVehContrib="0" flow="0.00" occupancy="0.00" speed="-1.00" length="-1.00" nVehEntered="0"/>
   <interval begin="30.00" end="60.00" id="0" nVehContrib="0" flow="0.00" occupancy="0.00" speed="-1.00" length="-1.00" nVehEntered="0"/>
   <interval begin="60.00" end="90.00" id="0" nVehContrib="4" flow="480.00" occupancy="27.25" speed="8.73" length="17.00" nVehEntered="4"/>
   <interval begin="90.00" end="120.00" id="0" nVehContrib="3" flow="360.00" occupancy="17.66" speed="9.82" length="17.00" nVehEntered="3"/>
   <interval begin="120.00" end="150.00" id="0" nVehContrib="4" flow="480.00" occupancy="22.89" speed="9.75" length="17.00" nVehEntered="4"/>
   <interval begin="150.00" end="180.00" id="0" nVehContrib="4" flow="480.00" occupancy="23.16" speed="9.79" length="17.00" nVehEntered="4"/>
   <interval begin="180.00" end="210.00" id="0" nVehContrib="4" flow="480.00" occupancy="23.01" speed="9.85" length="17.00" nVehEntered="4"/>
   <interval begin="210.00" end="240.00" id="0" nVehContrib="3" flow="360.00" occupancy="18.39" speed="9.83" length="17.00" nVehEntered="3"/>
   <interval begin="240.00" end="270.00" id="0" nVehContrib="4" flow="480.00" occupancy="21.85" speed="9.88" length="17.00" nVehEntered="4"/>
   <interval begin="270.00" end="300.00" id="0" nVehContrib="4" flow="480.00" occupancy="23.13" speed="9.80" length="17.00" nVehEntered="4"/>
   <interval begin="300.00" end="330.00" id="0" nVehContrib="3" flow="360.00" occupancy="22.26" speed="9.78" length="17.00" nVehEntered="3"/>
   <interval begin="330.00" end="360.00" id="0" nVehContrib="4" flow="480.00" occupancy="18.32" speed="9.78" length="17.00" nVehEntered="4"/>
   <interval begin="360.00" end="390.00" id="0" nVehContrib="4" flow="480.00" occupancy="23.03" speed="9.84" length="17.00" nVehEntered="4"/>
   <interval begin="390.00" end="420.00" id="0" nVehContrib="3" flow="360.00" occupancy="20.13" speed="9.86" length="17.00" nVehEntered="3"/>
   <interval begin="420.00" end="450.00" id="0" nVehContrib="4" flow="480.00" occupancy="20.17" speed="9.83" length="17.00" nVehEntered="4"/>
   <interval begin="450.00" end="480.00" id="0" nVehContrib="4" flow="480.00" occupancy="23.04" speed="9.84" length="17.00" nVehEntered="4"/>
   <interval begin="480.00" end="510.00" id="0" nVehContrib="4" flow="480.00" occupancy="23.25" speed="9.75" length="17.00" nVehEntered="4"/>
   <interval begin="510.00" end="540.00" id="0" nVehContrib="3" flow="360.00" occupancy="17.26" speed="9.85" length="17.00" nVehEntered="3"/>
   <interval begin="540.00" end="570.00" id="0" nVehContrib="4" flow="480.00" occupancy="23.05" speed="9.84" length="17.00" nVehEntered="4"/>
   <interval begin="570.00" end="600.00" id="0" nVehContrib="4" flow="480.00" occupancy="23.24" speed="9.75" length="17.00" nVehEntered="4"/>
   <interval begin="600.00" end="630.00" id="0" nVehContrib="3" flow="360.00" occupancy="17.43" speed="9.75" length="17.00" nVehEntered="3"/>
   <interval begin="630.00" end="660.00" id="0" nVehContrib="4" flow="480.00" occupancy="23.05" speed="9.83" length="17.00" nVehEntered="4"/>
   <interval begin="660.00" end="690.00" id="0" nVehContrib="3" flow="360.00" occupancy="21.55" speed="9.75" length="17.00" nVehEntered="3"/>
   <interval begin="690.00" end="720.00" id="0" nVehContrib="4" flow="480.00" occupancy="18.98" speed="9.82" length="17.00" nVehEntered="4"/>
   <interval begin="720.00" end="750.00" id="0" nVehContrib="4" flow="480.00" occupancy="23.00" speed="9.86" length="17.00" nVehEntered="4"/>
   <interval begin="750.00" end="780.00" id="0" nVehContrib="4" flow="480.00" occupancy="23.02" speed="9.85" length="17.00" nVehEntered="4"/>
   <interval begin="780.00" end="810.00" id="0" nVehContrib="3" flow="360.00" occupancy="21.97" speed="9.85" length="17.00" nVehEntered="3"/>
   <interval begin="810.00" end="840.00" id="0" nVehContrib="4" flow="480.00" occupancy="18.48" speed="9.78" length="17.00" nVehEntered="4"/>
   <interval begin="840.00" end="870.00" id="0" nVehContrib="4" flow="480.00" occupancy="23.13" speed="9.80" length="17.00" nVehEntered="4"/>
   <interval begin="870.00" end="900.00" id="0" nVehContrib="4" flow="480.00" occupancy="23.07" speed="9.83" length="17.00" nVehEntered="4"/>
   <interval begin="900.00" end="930.00" id="0" nVehContrib="3" flow="360.00" occupancy="17.45" speed="9.74" length="17.00" nVehEntered="3"/>
   <interval begin="930.00" end="960.00" id="0" nVehContrib="4" flow="480.00" occupancy="23.18" speed="9.78" length="17.00" nVehEntered="4"/>
   <interval begin="960.00" end="990.00" id="0" nVehContrib="3" flow="360.00" occupancy="21.96" speed="9.79" length="17.00" nVehEntered="3"/>
   <interval begin="990.00" end="1020.00" id="0" nVehContrib="4" flow="480.00" occupancy="18.48" speed="9.82" length="17.00" nVehEntered="4"/>
   <interval begin="1020.00" end="1050.00" id="0" nVehContrib="4" flow="480.00" occupancy="23.11" speed="9.81" length="17.00" nVehEntered="4"/>
   <interval begin="1050.00" end="1080.00" id="0" nVehContrib="4" flow="480.00" occupancy="23.04" speed="9.84" length="17.00" nVehEntered="4"/>
   <interval begin="1080.00" end="1110.00" id="0" nVehContrib="3" flow="360.00" occupancy="20.61" speed="9.83" length="17.00" nVehEntered="3"/>
   <interval begin="1110.00" end="1140.00" id="0" nVehContrib="4" flow="480.00" occupancy="19.78" speed="9.81" length="17.00" nVehEntered="4"/>
   <interval begin="1140.00" end="1170.00" id="0" nVehContrib="4" flow="480.00" occupancy="23.23" speed="9.76" length="17.00" nVehEntered="4"/>
   <interval begin="1170.00" end="1200.00" id="0" nVehContrib="3" flow="360.00" occupancy="17.23" speed="9.87" length="17.00" nVehEntered="3"/>
   <interval begin="1200.00" end="1230.00" id="0" nVehContrib="4" flow="480.00" occupancy="23.24" speed="9.75" length="17.00" nVehEntered="4"/>
   <interval begin="1230.00" end="1260.00" id="0" nVehContrib="4" flow="480.00" occupancy="23.16" speed="9.79" length="17.00" nVehEntered="4"/>
   <interval begin="1260.00" end="1290.00" id="0" nVehContrib="3" flow="360.00" occupancy="17.30" speed="9.82" length="17.00" nVehEntered="3"/>
   <interval begin="1290.00" end="1320.00" id="0" nVehContrib="4" flow="480.00" occupancy="23.09" speed="9.82" length="17.00" nVehEntered="4"/>
   <interval begin="1320.00" end="1350.00" id="0" nVehContrib="4" flow="480.00" occupancy="23.08" speed="9.82" length="17.00" nVehEntered="4"/>
   <interval begin="1350.00" end="1380.00" id="0" nVehContrib="3" flow="360.00" occupancy="17.49" speed="9.72" length="17.00" nVehEntered="3"/>
   <interval begin="1380.00" end="1410.00" id="0" nVehContrib="4" flow="480.00" occupancy="22.89" speed="9.90" length="17.00" nVehEntered="4"/>
   <interval begin="1410.00" end="1440.00" id="0" nVehContrib="3" flow="360.00" occupancy="17.69" speed="9.78" length="17.00" nVehEntered="3"/>
   <interval begin="1440.00" end="1470.00" id="0" nVehContrib="4" flow="480.00" occupancy="22.71" speed="9.85" length="17.00" nVehEntered="4"/>
   <interval begin="1470.00" end="1500.00" id="0" nVehContrib="4" flow="480.00" occupancy="23.16" speed="9.79" length="17.00" nVehEntered="4"/>
   <interval begin="1500.00" end="1530.00" id="0" nVehContrib="3" flow="360.00" occupancy="19.02" speed="9.79" length="17.00" nVehEntered="3"/>
   <interval begin="1530.00" end="1560.00" id="0" nVehContrib="4" flow="480.00" occupancy="21.33" speed="9.86" length="17.00" nVehEntered="4"/>
   <interval begin="1560.00" end="1590.00" id="0" nVehContrib="4" flow="480.00" occupancy="23.16" speed="9.79" length="17.00" nVehEntered="4"/>
   <interval begin="1590.00" end="1620.00" id="0" nVehContrib="3" flow="360.00" occupancy="21.86" speed="9.81" length="17.00" nVehEntered="3"/>
   <interval begin="1620.00" end="1650.00" id="0" nVehContrib="4" flow="480.00" occupancy="18.66" speed="9.77" length="17.00" nVehEntered="4"/>
   <interval begin="1650.00" end="1680.00" id="0" nVehContrib="4" flow="480.00" occupancy="23.26" speed="9.74" length="17.00" nVehEntered="4"/>
   <interval begin="1680.00" end="1710.00" id="0" nVehContrib="3" flow="360.00" occupancy="22.95" speed="9.77" length="17.00" nVehEntered="3"/>
   <interval begin="1710.00" end="1740.00" id="0" nVehContrib="4" flow="480.00" occupancy="17.52" speed="9.82" length="17.00" nVehEntered="4"/>
   <interval begin="1740.00" end="1770.00" id="0" nVehContrib="4" flow="480.00" occupancy="23.19" speed="9.77" length="17.00" nVehEntered="4"/>
   <interval begin="1770.00" end="1800.00" id="0" nVehContrib="3" flow="360.00" occupancy="22.54" speed="9.78" length="17.00" nVehEntered="3"/>
   <interval begin="1800.00" end="1830.00" id="0" nVehContrib="4" flow="480.00" occupancy="17.70" speed="9.92" length="17.00" nVehEntered="4"/>
   <interval begin="1830.00" end="1860.00" id="0" nVehContrib="4" flow="480.00" occupancy="23.04" speed="9.84" length="17.00" nVehEntered="4"/>
   <interval begin="1860.00" end="1890.00" id="0" nVehContrib="4" flow="480.00" occupancy="23.20" speed="9.77" length="17.00" nVehEntered="4"/>
   <interval begin="1890.00" end="1920.00" id="0" nVehContrib="3" flow="360.00" occupancy="17.47" speed="9.73" length="17.00" nVehEntered="3"/>
   <interval begin="1920.00" end="1950.00" id="0" nVehContrib="4" flow="480.00" occupancy="23.24" speed="9.75" length="17.00" nVehEntered="4"/>
   <interval begin="1950.00" end="1980.00" id="0" nVehContrib="4" flow="480.00" occupancy="22.98" speed="9.86" length="17.00" nVehEntered="4"/>
   <interval begin="1980.00" end="2010.00" id="0" nVehContrib="3" flow="360.00" occupancy="18.35" speed="9.75" length="17.00" nVehEntered="3"/>
   <interval begin="2010.00" end="2040.00" id="0" nVehContrib="4" flow="480.00" occupancy="22.11" speed="9.85" length="17.00" nVehEntered="4"/>
   <interval begin="2040.00" end="2070.00" id="0" nVehContrib="4" flow="480.00" occupancy="23.23" speed="9.76" length="17.00" nVehEntered="4"/>
   <interval begin="2070.00" end="2100.00" id="0" nVehContrib="4" flow="480.00" occupancy="22.95" speed="9.88" length="17.00" nVehEntered="4"/>
   <interval begin="2100.00" end="2130.00" id="0" nVehContrib="3" flow="360.00" occupancy="20.69" speed="9.82" length="17.00" nVehEntered="3"/>
   <interval begin="2130.00" end="2160.00" id="0" nVehContrib="4" flow="480.00" occupancy="19.67" speed="9.84" length="17.00" nVehEntered="4"/>
   <interval begin="2160.00" end="2190.00" id="0" nVehContrib="4" flow="480.00" occupancy="23.21" speed="9.77" length="17.00" nVehEntered="4"/>
   <interval begin="2190.00" end="2220.00" id="0" nVehContrib="3" flow="360.00" occupancy="18.27" speed="9.86" length="17.00" nVehEntered="3"/>
   <interval begin="2220.00" end="2250.00" id="0" nVehContrib="4" flow="480.00" occupancy="22.19" speed="9.76" length="17.00" nVehEntered="4"/>
   <interval begin="2250.00" end="2280.00" id="0" nVehContrib="4" flow="480.00" occupancy="23.00" speed="9.86" length="17.00" nVehEntered="4"/>
   <interval begin="2280.00" end="2310.00" id="0" nVehContrib="4" flow="480.00" occupancy="23.09" speed="9.82" length="17.00" nVehEntered="4"/>
   <interval begin="2310.00" end="2340.00" id="0" nVehContrib="3" flow="360.00" occupancy="19.38" speed="9.76" length="17.00" nVehEntered="3"/>
   <interval begin="2340.00" end="2370.00" id="0" nVehContrib="4" flow="480.00" occupancy="21.19" speed="9.79" length="17.00" nVehEntered="4"/>
   <interval begin="2370.00" end="2400.00" id="0" nVehContrib="4" flow="480.00" occupancy="23.03" speed="9.84" length="17.00" nVehEntered="4"/>
   <interval begin="2400.00" end="2430.00" id="0" nVehContrib="3" flow="360.00" occupancy="21.87" speed="9.79" length="17.00" nVehEntered="3"/>
   <interval begin="2430.00" end="2460.00" id="0" nVehContrib="4" flow="480.00" occupancy="18.56" speed="9.83" length="17.00" nVehEntered="4"/>
   <interval begin="2460.00" end="2490.00" id="0" nVehContrib="4" flow="480.00" occupancy="23.09" speed="9.82" length="17.00" nVehEntered="4"/>
   <interval begin="2490.00" end="2520.00" id="0" nVehContrib="4" flow="480.00" occupancy="23.19" speed="9.77" length="17.00" nVehEntered="4"/>
   <interval begin="2520.00" end="2550.00" id="0" nVehContrib="3" flow="360.00" occupancy="20.89" speed="9.77" length="17.00" nVehEntered="3"/>
   <interval begin="2550.00" end="2580.00" id="0" nVehContrib="4" flow="480.00" occupancy="19.60" speed="9.82" length="17.00" nVehEntered="4"/>
   <interval begin="2580.00" end="2610.00" id="0" nVehContrib="4" flow="480.00" occupancy="23.29" speed="9.73" length="17.00" nVehEntered="4"/>
   <interval begin="2610.00" end="2640.00" id="0" nVehContrib="4" flow="480.00" occupancy="23.24" speed="9.75" length="17.00" nVehEntered="4"/>
   <interval begin="2640.00" end="2670.00" id="0" nVehContrib="3" flow="360.00" occupancy="18.97" speed="9.87" length="17.00" nVehEntered="3"/>
   <interval begin="2670.00" end="2700.00" id="0" nVehContrib="4" flow="480.00" occupancy="21.42" speed="9.79" length="17.00" nVehEntered="4"/>
   <interval begin="2700.00" end="2730.00" id="0" nVehContrib="4" flow="480.00" occupancy="23.12" speed="9.80" length="17.00" nVehEntered="4"/>
   <interval begin="2730.00" end="2760.00" id="0" nVehContrib="4" flow="480.00" occupancy="23.15" speed="9.79" length="17.00" nVehEntered="4"/>
   <interval begin="2760.00" end="2790.00" id="0" nVehContrib="3" flow="360.00" occupancy="18.42" speed="9.77" length="17.00" nVehEntered="3"/>
   <interval begin="2790.00" end="2820.00" id="0" nVehContrib="4" flow="480.00" occupancy="22.14" speed="9.79" length="17.00" nVehEntered="4"/>
   <interval begin="2820.00" end="2850.00" id="0" nVehContrib="4" flow="480.00" occupancy="23.10" speed="9.81" length="17.00" nVehEntered="4"/>
   <interval begin="2850.00" end="2880.00" id="0" nVehContrib="3" flow="360.00" occupancy="17.92" speed="9.83" length="17.00" nVehEntered="3"/>
   <interval begin="2880.00" end="2910.00" id="0" nVehContrib="4" flow="480.00" occupancy="22.45" speed="9.83" length="17.00" nVehEntered="4"/>
   <interval begin="2910.00" end="2940.00" id="0" nVehContrib="4" flow="480.00" occupancy="23.07" speed="9.82" length="17.00" nVehEntered="4"/>
   <interval begin="2940.00" end="2970.00" id="0" nVehContrib="3" flow="360.00" occupancy="18.85" speed="9.80" length="17.00" nVehEntered="3"/>
   <interval begin="2970.00" end="3000.00" id="0" nVehContrib="4" flow="480.00" occupancy="21.59" speed="9.81" length="17.00" nVehEntered="4"/>
   <interval begin="3000.00" end="3030.00" id="0" nVehContrib="4" flow="480.00" occupancy="23.26" speed="9.74" length="17.00" nVehEntered="4"/>
   <interval begin="3030.00" end="3060.00" id="0" nVehContrib="3" flow="360.00" occupancy="17.34" speed="9.80" length="17.00" nVehEntered="3"/>
   <interval begin="3060.00" end="3090.00" id="0" nVehContrib="4" flow="480.00" occupancy="23.14" speed="9.80" length="17.00" nVehEntered="4"/>
   <interval begin="3090.00" end="3120.00" id="0" nVehContrib="4" flow="480.00" occupancy="23.12" speed="9.80" length="17.00" nVehEntered="4"/>
   <interval begin="3120.00" end="3150.00" id="0" nVehContrib="3" flow="360.00" occupancy="17.42" speed="9.76" length="17.00" nVehEntered="3"/>
   <interval begin="3150.00" end="3180.00" id="0" nVehContrib="4" flow="480.00" occupancy="23.16" speed="9.79" length="17.00" nVehEntered="4"/>
   <interval begin="3180.00" end="3210.00" id="0" nVehContrib="3" flow="360.00" occupancy="22.53" speed="9.86" length="17.00" nVehEntered="3"/>
   <interval begin="3210.00" end="3240.00" id="0" nVehContrib="4" flow="480.00" occupancy="17.91" speed="9.77" length="17.00" nVehEntered="4"/>
   <interval begin="3240.00" end="3270.00" id="0" nVehContrib="4" flow="480.00" occupancy="23.24" speed="9.75" length="17.00" nVehEntered="4"/>
   <interval begin="3270.00" end="3300.00" id="0" nVehContrib="4" flow="480.00" occupancy="23.25" speed="9.75" length="17.00" nVehEntered="4"/>
   <interval begin="3300.00" end="3330.00" id="0" nVehContrib="4" flow="480.00" occupancy="23.02" speed="9.85" length="17.00" nVehEntered="4"/>
   <interval begin="3330.00" end="3360.00" id="0" nVehContrib="3" flow="360.00" occupancy="17.43" speed="9.76" length="17.00" nVehEntered="3"/>
   <interval begin="3360.00" end="3390.00" id="0" nVehContrib="4" flow="480.00" occupancy="23.07" speed="9.83" length="17.00" nVehEntered="4"/>
   <interval begin="3390.00" end="3420.00" id="0" nV4" flow="480.00" occupancy="19.03" speed="9.72" length="17.00" nVehEntered="4"/>
   <interval begin="3420.00" end="3450.00" id="0" nVehContrib="4" flow="480.00" occupancy="23.05" speed="9.83" length="17.00" nVehEntered="4"/>
   <interval begin="3450.00" end="3480.00" id="0" nVehContrib="4" flow="480.00" occupancy="23.27" speed="9.74" length="17.00" nVehEntered="4"/>
   <interval begin="3480.00" end="3510.00" id="0" nVehContrib="3" flow="360.00" occupancy="17.36" speed="9.79" length="17.00" nVehEntered="3"/>
   <interval begin="3510.00" end="3540.00" id="0" nVehContrib="4" flow="480.00" occupancy="23.25" speed="9.75" length="17.00" nVehEntered="4"/>
   <interval begin="3540.00" end="3570.00" id="0" nVehContrib="0" flow="0.00" occupancy="8.52" speed="-1.00" length="-1.00" nVehEntered="0"/>
   <interval begin="3570.00" end="3600.00" id="0" nVehContrib="3" flow="360.00" occupancy="12.73" speed="8.49" length="17.00" nVehEntered="3"/>
   <interval begin="3600.00" end="3601.00" id="0" nVehContrib="0" flow="0.00" occupancy="0.00" speed="-1.00" length="-1.00" nVehEntered="0"/>
</detector>

</detector>
